long moment before he M 8984
long voyage across the M 6388
long enough before the M 6376
long voyage around the M 2718
long shadow across the M 2524
long enough periods of M 2137
long periods without the M 2084
long winter nights in M 1988
long detour through the M 1966
long course through the M 1636
long enough periods to M 1570
long voyage through the M 1486
long drives through the M 1350
long enough before he M 1346
long periods before the M 1276
lot better chance of M 1264
long moment before the M 1246
long winter nights of M 1220
long enough before it M 1188
long detour around the M 1186
long tunnel through the M 1176
long delays caused by M 1168
long passed beyond the M 1123
long periods should be M 1118
long standing demand of M 1076
long before arriving at M 984
long minute before he M 976
long indeed before the M 976
long delays before the M 930
long before deciding to M 908
long speech before the M 830
long winter nights the M 802
long before anyone in M 802
long moment neither of M 758
long before learned to M 755
long enough before we M 716
long standing member of M 694
long narrow valley of M 693
long future before it M 692
low prices caused by M 626
long winter nights to M 540
long enough through the M 520
long endure without the M 510
long enough before to M 498
low ground around the M 484
long denied access to M 484
low profit margin on M 474
long letter signed by M 472
long wooden tables in M 464
long narrow pieces of M 463
long winter nights by M 452
long narrow street of M 450
low import duties on M 442
long before arriving in M 430
long periods before it M 424
low energy states of M 422
low enough values of M 418
long moment passed as M 417
long before sunset the M 405
long winter nights he M 404
long voyage before us M 402
long enough almost to M 400
low ground behind the M 398
long indeed before he M 394
long enough already to M 394
long enough without it M 392
long enough abroad to M 390
long standing should be M 376
long passed through the M 372
long before changes in M 372
low ground beside the M 370
long decaying building on M 370
low market shares in M 366
low prices should be M 360
low nature better by M 356
low enough prices to M 356
long endure unless it M 356
low market prices of M 344
long winter nights at M 332
low prices through the M 328
long relied heavily on M 328
long periods without an M 328
long periods through the M 320
low street called the M 318
low prices instead of M 312
low ground beyond the M 312
long enough indeed to M 310
long enough absent to M 310
long before starting to M 303
long wooden handle of M 302
long moment before it M 302
long standing desire to M 289
long moment passed in M 286
low passion worked up M 284
long hidden behind the M 282
low profit margin in M 278
long periods without it M 278
long passed before the M 278
long standing custom of M 269
low prices before the M 268
long enough behind to M 268
long public letter to M 262
long drives across the M 262
long before learned the M 262
low energy prices in M 260
low building across the M 260
long vowels should be M 260
long standing friend of M 259
low passes through the M 254
low profit margin of M 250
lot number should be M 250
long before reached the M 250
low enough energy to M 248
long remain without the M 244
long before limiting or M 244
long enough without the M 242
long winter nights on M 240
long standing before the M 240
long before spoken of M 240
long latent periods of M 238
long circle around the M 238
long detour across the M 232
low passes across the M 230
long course across the M 224
long before deciding on M 215
low initial values of M 214
long standing debate on M 214
long shadow before it M 212
long trails across the M 210
long before become the M 209
low values should be M 208
long minute before the M 208
long enough thought it M 208
long become merged in M 208
long return voyage to M 204
long standing nature of M 203
long before starting the M 203
lot without regard to M 202
long enough myself to M 201
long before through the M 200
long remain immune to M 199
long street called the M 198
long column through the M 196
lot better without the M 192
long standing record of M 192
long indeed before we M 192
long before looked up M 192
long second before he M 188
long periods instead of M 188
long drives around the M 188
low market shares of M 186
long viewed itself as M 186
long without notice or M 183
long debate showed the M 182
long tables should be M 178
long tables placed in M 178
long ascent through the M 178
lot better chance to M 176
long periods unless the M 176
long periods inside the M 176
long without something to M 174
long winter before me M 174
long summer nights in M 174
low profit margin is M 172
low prices result in M 172
long winter nights is M 172
log should always be M 172
long training course in M 170
long winter nights as M 169
long enough behind the M 169
long before become an M 169
long remain without an M 168
long standing disease of M 167
long enough engaged in M 167
long debate whether the M 166
long summer visits to M 164
low points reached in M 162
long before passed the M 162
long circle through the M 158
long before someone in M 158
low yields caused by M 156
low voices through the M 156
low impact strength of M 156
long travel through the M 156
long sought through the M 156
low points should be M 154
long valley formed by M 154
long wooden handle is M 152
long wavering bodies of M 152
long standing debate in M 150
long prayer before the M 150
long before renewing the M 150
long before groups of M 150
low voices behind the M 148
long without realizing it M 148
long voyage breeds on M 148
long street toward the M 148
long garden behind the M 148
long before becoming the M 147
low prices quoted by M 146
low market values of M 146
long narrow window in M 146
long letter reached me M 146
long proved itself to M 143
low church school of M 142
long voyage before me M 142
long trails through the M 142
long remain latent in M 142
long gathering clouds of M 142
long enough course to M 142
low energy states in M 140
long periods except in M 140
long before caused to M 140
long street shaded by M 138
long nights passed in M 138
long narrow valley in M 138
long enough standing to M 136
log placed across the M 136
long enough without my M 135
low building behind the M 134
long minute passed in M 134
long enough amongst us M 134
log should record the M 134
low relief around the M 132
long standing source of M 132
long standing belief in M 132
low market prices in M 130
low energy values of M 130
long winter nights or M 130
long detour around it M 130
long before agreed to M 129
low building called the M 128
long tunnel toward the M 128
long pieces should be M 128
long narrow column of M 128
long eastern coasts of M 128
low clouds seemed to M 126
long voyage aboard the M 126
long thought highly of M 126
long before another of M 126
long battle through the M 126
low medium medium to M 125
long enough across the M 125
long before realizing it M 125
long stands master of M 124
long speech seemed to M 124
long remain master of M 124
long nights before the M 124
long nights around the M 124
long narrow window of M 124
long letter praising the M 124
long before crossing the M 123
log fallen across the M 123
long winter before us M 122
long future before me M 122
long course around the M 122
long battle fought by M 122
long without someone to M 120
long remain hidden in M 120
long periods awaiting the M 120
long future before us M 120
long enough beyond the M 120
low ground toward the M 118
low building beside the M 118
long narrow building of M 118
long moment through the M 118
long building behind the M 118
low mental powers as M 116
low enough figure to M 116
lot should happen to M 116
long without injury to M 116
long periods beyond the M 116
long periods appears to M 116
long minute passed as M 116
long enough anyway to M 116
long argued whether the M 116
long tables placed on M 114
long summer voyage of M 114
long public record of M 114
long letter instead of M 114
long endure without an M 114
long standing desire of M 113
long indeed before it M 113
low profit margin to M 112
low profit margin or M 112
long friend wasted no M 112
long double column of M 112
long without access to M 111
lot should always be M 110
lot better before we M 110
long vainly sought to M 110
long standing claims of M 110
long sought object of M 110
long proved useful in M 110
long enough record of M 110
low mental powers of M 108
long voyage amongst the M 108
long standing hatred of M 108
long public debate on M 108
long before assuming the M 108
long enough merely to M 107
long before becoming an M 107
long before anyone is M 107
low wooden building of M 106
low wooden building at M 106
low through medium to M 106
low energy output of M 106
long wooden handle to M 106
long standing demand to M 106
long periods needed to M 106
long periods engaged in M 106
log building served as M 106
long enough should be M 105
low safety factor of M 104
lot better without it M 104
long remain before the M 104
long periods watching the M 104
long annual visits to M 104
long narrow blocks of M 103
low energy intake is M 102
long winter nights we M 102
long speech praising the M 102
long shadow through the M 102
long initial periods of M 102
long friend raised the M 102
long enough played the M 101
long before someone is M 101
low prices likely to M 100
low impact strength at M 100
low enough values to M 100
low energy should be M 100
long winter nights it M 100
long summer mornings the M 100
long moment watching the M 100
long letter replying to M 100
long before warned the M 100
long before abused to M 100
low tunnel through the M 98
low energy limits of M 98
long silent moment he M 98
long latent desire to M 98
long deemed sacred by M 98
long causal chains of M 98
long before taught the M 98
long voyage should be M 96
log building belonging to M 96
low values placed on M 94
low ground before the M 94
low degree should be M 94
long violent strain of M 94
long trains through the M 94
long debate before the M 94
long column around the M 94
long before joined the M 94
long before formed the M 94
low affect toward the M 92
long wooden building of M 92
long thought myself an M 92
long periods before he M 92
long narrow streams of M 92
long enough retain the M 92
long chains formed by M 92
long narrow fields of M 91
long lonely nights in M 91
long before applying the M 91
low values before the M 90
low prices reduce the M 90
lot better before the M 90
long wooden tables to M 90
long wooden tables on M 90
long voyage before the M 90
long standing debate as M 90
long sought answer to M 90
long shadow before he M 90
long moment beside the M 90
long standing custom in M 89
low voices across the M 88
low initial degree of M 88
long wooden building in M 88
long vainly sought by M 88
long training course at M 88
long second before the M 88
long remain behind the M 88
long moment studying the M 88
long without arriving at M 87
long without anyone to M 87
long narrow valley to M 87
low enough almost to M 86
long wooden tables at M 86
long voyage toward the M 86
long seemed obvious to M 86
long narrow building in M 86
long debate whether it M 86
long course before the M 86
long course before it M 86
low prices seemed to M 84
low ground around it M 84
low demand periods to M 84
long street through the M 84
long standing system of M 84
long standing issues in M 84
long figure looked so M 84
long before turned to M 84
low enough before the M 82
lot better chance if M 82
long tunnel formed by M 82
long training needed to M 82
long training course on M 82
long periods unable to M 82
long periods marked by M 82
long periods before an M 82
long endure unless the M 82
long before chosen as M 82
long battle before the M 82
low values around the M 80
long training periods in M 80
long tables filled the M 80
long fallen before the M 80
long engaged before the M 80
long seemed likely to M 66
long before fallen in M 63
long sought access to M 57
long without noticing the M 55
long before something of M 54
long enough around the M 53
long before events in M 53
long before methods of M 51
long before agreed on M 50
long enough inside the M 49
long standing habits of M 48
long before starting on M 48
long before theories of M 47
long before replying to M 47
long before stated by M 46
long formed habits of M 45
long before another is M 44
long before sunset we M 43
long seemed strange to M 41
long before realizing the M 41
long before issues of M 41
long standing before it M 40
long should always be M 40
long enough amidst the M 40
long before yielding to M 40
long before access to M 40
low plasma levels of D 5096
long narrow strips of D 4463
low income groups in D 3929
long prided itself on D 3330
long winter evenings in D 3258
low oxygen tension in D 2618
long bridge across the D 2497
low oxygen levels in D 2396
long flight across the D 2232
low cardiac output or D 2056
low cardiac output in D 1839
long winter evenings the D 1750
low cardiac output is D 1676
long stride toward the D 1496
long standing policy of D 1464
low income groups to D 1394
low initial levels of D 1308
long winter evenings he D 1302
long winter evenings of D 1276
low income levels of D 1230
long tramps through the D 1224
long staple cotton in D 1224
long winter evenings to D 1220
long needle through the D 1162
long staple cotton is D 1154
long before entering the D 1110
low income groups is D 1080
long winter evenings by D 1075
long winter evenings at D 1018
low income groups of D 952
low sexual desire in D 951
long middle section of D 934
long ramble through the D 918
low income levels in D 848
long narrow island of D 818
low oxygen tension of D 782
low energy portion of D 770
long island estate of D 748
low sexual desire is D 732
long hollow valley of D 732
long mirror behind the D 668
long stroll through the D 652
long flight through the D 612
low tissue levels of D 580
long island suburb of D 578
low income groups as D 564
low oxygen tension on D 560
long public career he D 552
long public career of D 548
low atomic number of D 540
long summer evenings in D 528
low energy levels of D 514
long bridge spanning the D 514
low income earners in D 508
low levels through the D 492
low income groups or D 492
long smooch around the D 480
long lagged behind the D 472
low oxygen tension is D 466
low income status of D 454
low atomic weight of D 454
long section through the D 449
long island before the D 448
long summer evenings of D 430
log bridge across the D 422
low scores should be D 410
low status groups in D 398
long island should be D 398
long street climbs to D 392
long carbon chains of D 388
low carbon steels is D 378
low oxygen tension or D 372
low levels reached in D 370
long debate ensued on D 363
low family income is D 357
low energy levels in D 356
long winter evenings we D 356
long public career as D 349
low normal levels of D 346
long trudge through the D 346
long island across the D 344
long island museum of D 343
low stress levels in D 336
long enough series of D 328
low enough levels to D 326
long debate ensued in D 326
long winter evenings on D 322
long retreat through the D 322
long stride across the D 320
long staple cotton of D 320
low levels before the D 318
long staple cotton to D 316
long public career in D 308
low signal levels the D 300
low income earners to D 298
low income levels is D 290
low income groups at D 290
low carbon steels in D 290
low atomic number is D 290
long summer evenings the D 288
long narrow flight of D 282
long before agreeing to D 276
low income levels the D 272
low income groups by D 272
long queues formed at D 272
long evenings around the D 272
long vistas through the D 268
low oxygen levels at D 262
low morale caused by D 262
low levels should be D 262
long summer evenings on D 262
low public opinion of D 260
low family income or D 260
low albedo plains of D 260
long rambling letter to D 256
long narrow ribbon of D 255
low income levels to D 254
low starting torque is D 248
low oxygen tension at D 244
long prided itself as D 243
long island branch of D 241
low atomic number the D 240
long bright tongues up D 240
low carbon steels the D 238
long queues before the D 238
low thermal inertia of D 236
low income groups the D 234
low stress levels the D 232
long summer evenings to D 230
long summer evenings he D 230
long retreat before the D 230
long narrow stripe of D 230
low sexual desire or D 224
low oxygen levels or D 224
long streaks across the D 224
long cruise through the D 224
low marshy ground in D 222
long sweeping curves of D 220
low carbon steels to D 218
long spinal needle is D 218
long branch saloon in D 217
long return flight to D 214
long narrow ridges of D 212
low public esteem in D 210
low dosage levels of D 210
long tandem arrays of D 210
low relief carvings of D 208
long evenings before the D 208
low income groups on D 206
long summer evenings we D 206
long narrow sheets of D 206
long narrow strips or D 202
low sodium intake is D 198
low sodium intake in D 198
long uphill battle to D 198
long french window of D 198
long debate ensued as D 198
long winter evenings as D 197
long winter evenings or D 196
long narrow trough of D 196
long island estate in D 196
low sodium levels in D 194
long trudge across the D 194
long cruise around the D 194
low cardiac output as D 193
long therapy should be D 192
low bridge across the D 190
low income section of D 188
low atomic number in D 188
long stroll around the D 188
low sodium intake on D 186
long lashes rested on D 186
long island instead of D 186
long biceps tendon is D 185
long summer evenings at D 184
long double strand of D 184
long avenue toward the D 184
low oxygen tension to D 182
low energy cutoff of D 182
long island through the D 182
long island estate to D 182
low cardiac output at D 180
long tramps across the D 180
long quarto stages to D 180
low visual acuity in D 178
low tariff policy of D 178
low murmur through the D 178
low cardiac output by D 178
long shoots should be D 178
long screws through the D 178
low oxygen levels by D 176
long lurked behind it D 176
long fallow periods of D 176
low energy regions of D 174
low cardiac output of D 174
long without claiming the D 174
long flight feathers of D 174
long double avenue of D 174
long narrow defile or D 173
low marshy shores of D 172
low income groups do D 172
long training session in D 172
long cattle drives to D 172
low status groups to D 170
low ritual status of D 170
low enough levels of D 170
low atomic number to D 170
log school houses of D 170
long gallop across the D 168
long splint should be D 166
long public career to D 166
long lonely evenings in D 165
long island school of D 165
long tinkle seemed to D 164
low oxygen levels of D 162
low marshy ground on D 162
long middle portion of D 162
long carbon chains in D 162
long standing feature of D 161
low oxygen supply to D 160
long wooden bridge at D 160
long parade through the D 160
long narrow section of D 160
low signal levels in D 158
low income sector of D 158
low public esteem of D 156
low income states in D 156
long tinkle through the D 156
long staple cotton as D 155
low oxygen supply in D 154
low energy levels to D 154
long stroll across the D 154
long splice variant of D 154
long session begins in D 154
long dragging streams of D 154
log sheets should be D 154
low oxygen tension as D 153
low starting torque of D 152
low copper levels in D 152
long staple cotton by D 152
long before midday the D 151
low swampy ground on D 148
low morale amongst the D 148
low cardiac output on D 148
long island before it D 148
log cabins dotted the D 148
low signal levels is D 146
low cotton prices in D 146
long lashes seemed to D 146
long fallow periods to D 146
low sexual desire as D 144
low levels result in D 144
low atomic weight is D 144
long narrow bridge of D 144
long winter evenings is D 142
long hollow needle is D 142
long gloves covering the D 142
long avenue beyond the D 142
long slopes beyond the D 140
long enough dressing to D 140
long avenue shaded by D 140
log houses marked the D 140
low places should be D 138
low factor loadings on D 138
long queues formed in D 138
long career became so D 138
long before struck the D 138
low oxygen levels is D 136
long narrow triangle of D 136
long narrow island in D 136
long career marked by D 136
low relief carvings on D 134
low income should be D 134
long career before it D 134
low plasma levels in D 132
low enough opinion of D 132
long slopes across the D 132
long skirts sweeping the D 132
long retreat across the D 132
long gallop through the D 132
long island section of D 131
low levels around the D 130
long staple cotton on D 130
long island family of D 130
log school houses in D 130
long island seemed to D 129
low cardiac output the D 128
low carbon version of D 128
long winter evenings it D 128
long pauses before the D 128
low tension system of D 126
low status person to D 126
low oxygen tension the D 126
long bridge crossing the D 126
log bridge spanning the D 126
low income family is D 124
long avenue through the D 124
low wooden houses on D 122
low murmur filled the D 122
low carbon grades of D 122
long salons fitted up D 122
low plasma sodium is D 120
low income family to D 120
low income family in D 120
low eastern portion of D 120
long summer evenings or D 120
long second section of D 120
long island became the D 120
long gentle knocking is D 120
low public spending on D 118
low photon energy of D 118
low income levels or D 118
low family income in D 118
long wooden bridge to D 118
long wooden bridge of D 118
low status member of D 116
low sodium intake or D 116
low rumble filled the D 116
low oxygen levels on D 116
low carbon steels by D 116
long piqued itself on D 116
long mirror across the D 116
long island toward the D 116
long island called the D 116
long billed itself as D 116
low volume spraying of D 114
low income strata of D 114
long prided itself in D 114
long flight toward the D 114
low visual acuity of D 112
low income earners is D 112
low hoarse murmur of D 112
low family income of D 112
low dipole moment of D 112
low crushing strength of D 112
long silken lashes the D 112
long narrow streaks of D 112
lot better places to D 111
low wooden houses in D 110
low stress levels at D 110
low cardiac output to D 110
low bushes beside the D 110
long trench across the D 110
long stitch across the D 110
long shafts through the D 110
long needle should be D 110
long before rumors of D 110
low levels reached by D 108
long sweeping vistas in D 108
long rambling speech in D 108
long narrow scroll of D 108
long double series of D 108
log cabins beside the D 108
low stress levels is D 106
long export unless it D 106
long career before the D 106
low salary levels of D 104
low salary levels in D 104
lot better suited to D 104
long staple cotton or D 104
long staple cotton at D 104
long bounds toward the D 104
long gentle slopes to D 103
low tension system is D 102
low status person is D 102
low plasma levels is D 102
low output levels of D 102
low energy levels is D 102
low carbon steels of D 102
low carbon steels at D 102
long strips should be D 102
long sticks through the D 102
long narrow feathers of D 102
long lashes sweeping the D 102
long flight before the D 102
long before driven the D 102
long before dozens of D 102
long chatty letter to D 101
low scores tended to D 100
low income groups it D 100
low family income on D 100
long moment stared at D 100
long narrow island on D 99
long narrow inlets of D 99
low wooded shores of D 98
low rambling building of D 98
low marshy ground of D 98
long splice should be D 98
long narrow isthmus of D 98
long gentle slopes of D 98
long fallow periods in D 98
long enough portion of D 98
low stools before the D 96
low staffing levels in D 96
low ridges formed by D 96
low ragged clouds of D 96
low bushes behind the D 96
long yellow mantle he D 96
long standing puzzle of D 96
long become inured to D 96
low visual acuity is D 94
low places filled up D 94
low opinion indeed of D 94
low factor loadings in D 94
low cotton prices of D 94
long narrow strips by D 94
long boards placed on D 94
long avenue called the D 94
low retail prices of D 92
low plains around the D 92
low crouch toward the D 92
low carbon steels or D 92
long slopes toward the D 92
long middle section is D 92
low signal levels at D 90
low export duties on D 90
low atomic weight the D 90
long twelve leagues to D 90
long training session on D 90
long trailing sprays of D 90
long summer recess in D 90
long public career by D 90
long middle section in D 90
long cruise across the D 90
long before hauled up D 90
long narrow strips in D 89
low thyroid uptake of D 88
low levels across the D 88
low income blacks in D 88
long tables draped in D 88
long silken lashes of D 88
long periods tended to D 88
long peeled branch of D 88
long mirror beside the D 88
low wooden houses of D 86
low status groups of D 86
low marshy ground at D 86
long silver ribbon of D 86
long bamboo sticks to D 86
low levels toward the D 84
low energy levels or D 84
low atomic number or D 84
low annual income of D 84
long stride through the D 84
log scudding through the D 84
long standing policy to D 83
long standing ovation at D 83
long narrow portion of D 83
low square towers at D 82
low ritual status in D 82
low oxygen levels to D 82
low enough income to D 82
long yellow sheets of D 82
long wooden trough in D 82
long sylvan arcade is D 82
long strips across the D 82
long evenings passed in D 82
low public houses in D 80
low octane number of D 80
low esteem placed on D 80
long winter evenings my D 80
long training session at D 80
long standing arrears of D 80
long russet mantle of D 80
long ranked amongst the D 80
long narrow island is D 80
long lagged behind in D 80
long without stopping to D 63
low school status as D 62
low oxygen levels as D 60
long island beyond the D 56
long enough tenure to D 51
long island appears to D 50
long before dinner is D 48
low relief carved on D 44
long trailing skirts of D 43
long prided myself on D 41
low atomic number so D 40
long narrow tongues of D 40
long narrow strips to D 40
long before retiring to D 40
