local school system and M 2442
local labour market and M 2432
local public bodies and M 2108
local public school and M 1254
local public bodies are M 696
loved standing beside her M 608
local legend claims that M 599
local school system has M 550
local public bodies for M 548
local labour market area M 544
local access number for M 544
local school system for M 528
looking further afield for M 518
lower energy states are M 496
local bodies should not M 494
looking around wildly for M 490
lower market prices for M 488
lower profit margin than M 470
looking neither before nor M 470
local labour market for M 468
lower prices abroad than M 428
local school system was M 420
looking wildly around for M 412
local public entity may M 406
local school system may M 402
looking wildly around her M 400
local school system can M 390
local travel agency and M 384
local market prices for M 366
local labour market was M 364
local public school for M 360
local legend states that M 351
looking wildly around him M 346
local school teacher and M 344
local garden center for M 338
local middle school and M 336
looking mighty pleased with M 334
longer simply assume that M 334
lower energy states with M 332
lower import prices and M 331
local public agency and M 330
local market demand for M 326
looking wildly behind him M 324
lower energy states and M 320
local church groups and M 314
longer remain silent and M 310
longer accept morals and M 306
loved another better than M 302
local garden center and M 296
looks neither before nor M 294
looking pretty pleased with M 294
local market prices and M 286
lower import duties and M 285
local school teacher who M 280
looks little better than M 277
local access number and M 268
loves another better than M 266
longer exists except for M 266
local school system are M 266
local public agency for M 266
lower energy prices and M 263
local travel agents and M 256
looking little fellow with M 255
local public entity and M 254
local labour market has M 254
lower profit margin and M 250
local public school was M 248
local planning groups and M 248
lower market prices and M 245
loved pretty clothes and M 244
local school system with M 244
looking always upward for M 226
longer safely assume that M 226
local school system had M 218
local school system that M 214
looking further afield than M 212
local labour market can M 206
local church should not M 204
lower impact strength than M 202
lower middle school and M 200
longer seemed strange that M 198
loved bright colors and M 196
longer training periods and M 192
local labour market with M 192
local labour market are M 192
local market demand and M 188
longer seemed likely that M 186
local labour supply and M 186
local public bodies with M 182
lower strength values than M 176
lower energy intake than M 172
lower orders around him M 168
looks beyond itself for M 168
looking little better than M 168
longer defend absurd and M 164
looking around behind him M 160
local travel agency for M 160
looking through papers and M 158
local record stores and M 158
lower impact strength and M 156
local public agency may M 156
lower energy states than M 154
longer periods before they M 154
local planning bodies and M 154
longer periods without any M 152
local planning agency and M 152
local labour market that M 151
local labour market may M 148
lower energy intake and M 146
local garden centre and M 146
local building methods and M 146
local labour supply was M 144
local travel agents for M 142
loved person through death M 138
looks calmly abroad and M 138
lower orders should not M 136
looks beyond itself and M 134
longer periods without being M 134
loved strange thought and M 132
loose circle around him M 132
looks simple enough but M 132
lower profit margin for M 130
looking warily around him M 130
local school system who M 130
looks normal except for M 128
local public safety and M 128
looking fellow without any M 127
loved always better than M 126
local market prices are M 126
loose circle around her M 124
looks wildly around him M 124
looking little fellow who M 124
local market exists for M 124
lower import prices for M 122
local stress fields and M 122
local school system does M 122
lower visual fields are M 120
loved beyond measure with M 120
loved anyone before you M 120
loved anyone before and M 120
local public school that M 120
local mission school and M 120
local labour market but M 120
looking eagerly around for M 118
longer before voiced than M 118
local garden center can M 118
lower animal nature and M 116
longer stands before him M 116
lower output prices and M 115
loose circle around them M 114
local public school with M 114
local parent groups and M 114
local market better than M 114
local public agency that M 113
looking abroad summer and M 112
local public school had M 112
local public agency has M 112
longer occupy myself with M 110
lower import duties than M 108
loved winter better than M 108
looking upward toward that M 106
looking highly pleased with M 106
longer training periods for M 106
longer richly joined and M 106
longer occupy itself with M 106
loves another person and M 102
looks better without them M 102
local church school and M 102
looks better fitted for M 100
lower safety factor than M 98
lower energy values than M 98
lower energy demand and M 98
looks through nature with M 98
longer simple enough for M 98
local public school has M 98
longer delude myself that M 97
loose manner without any M 96
looks strange enough and M 96
looking hardly larger than M 96
longer training periods than M 96
local school system did M 96
local public school can M 96
lower united states and M 94
lower energy pathway for M 94
longer matter whether you M 94
local market trends and M 94
lower safety factor for M 92
looks bright indeed for M 92
local weekly papers and M 92
local training school for M 92
local school teacher was M 92
local market forces and M 92
looking eagerly around him M 90
longer standing before her M 90
local school building and M 90
local papers stated that M 90
lower stress values than M 89
local travel agents can M 88
local special school for M 88
local labour market had M 88
lower limiting values for M 86
lower energy prices than M 86
looking around before you M 86
logic worked itself out M 86
local middle school for M 86
local crisis center and M 86
loved fighting better than M 84
looking inside myself and M 84
looking around wildly and M 84
longer attend school and M 84
local public school may M 84
local planning agency for M 84
lower stress values are M 82
local family planning and M 82
lower energy output than M 80
loved beyond measure and M 80
looking keenly around him M 80
looking around before she M 80
local public bodies was M 80
local market center and M 80
local access number that M 66
looking person before him M 54
looking figure before him M 47
lower energy states that M 44
longer before deciding that M 42
local school boards and D 9447
lower income groups and D 5917
local police station and D 4732
lower income groups are D 3278
local school boards are D 3226
local police forces and D 2418
lower income groups who D 1736
lower income groups than D 1602
loses carbon dioxide and D 1532
local school boards may D 1490
lower income levels and D 1482
local public opinion and D 1436
lower income levels than D 1430
local tissue damage and D 1308
local police station for D 1294
local school boards for D 1022
lower cranial nerves are D 984
lower cranial nerves and D 983
local police forces are D 944
lower energy levels and D 889
lower atomic weight than D 864
local school boards with D 820
local school boards that D 812
lower energy levels are D 792
lower stress levels than D 743
lower income groups can D 736
lower stress levels and D 734
lower income groups may D 702
local policy makers and D 678
lower cardiac output and D 674
lower income groups with D 622
lower income groups was D 620
lower atomic number than D 610
local school boards can D 584
local police station was D 584
lower income groups has D 554
lower energy levels than D 550
local church leaders and D 544
local parish priest and D 542
lower courts should not D 540
local public opinion was D 532
local police station with D 528
local shopping center and D 512
lower income groups that D 506
lower regent street and D 501
local tissue injury and D 494
lower income groups had D 486
local school boards had D 480
lower income groups for D 470
local parish church and D 458
local shopping centre and D 452
loose fiscal policy and D 440
lower oxygen tension than D 436
lower export prices and D 416
local opinion leaders and D 416
lower status groups are D 400
local planning boards and D 392
lower retail prices and D 382
lower cranial nerves may D 360
local police chiefs and D 360
lower income levels are D 356
local tissue reaction and D 334
lower income groups but D 326
lower retail prices for D 321
lords record office and D 316
local tribal leaders and D 310
local school boards was D 306
lower status groups and D 302
local school boards who D 294
local retail stores and D 294
local parish priest was D 290
local parish priest who D 284
local public sector and D 282
local estate agents and D 282
local public policy and D 272
lower levels should not D 270
lower family income and D 264
lorry passed through this D 264
local church leaders who D 260
local flawed regions are D 256
lower courts agreed with D 254
lorry readily engaged for D 254
lower freezing points than D 252
local police forces for D 250
local tissue hypoxia and D 248
lower plasma levels than D 242
lower stroke volume and D 241
lower income groups pay D 234
lower cranial nerves can D 227
looking mighty spruce and D 226
local police forces that D 224
loyal border states and D 220
lower retail prices than D 220
lower atomic number and D 215
local tribal chiefs and D 214
lower dental arches are D 213
lower family income than D 212
looking farther afield for D 210
lower eyelid margin and D 209
local parish church for D 208
lower middle income and D 207
lower second molars and D 204
local safety office for D 204
local policy makers are D 204
local buckling stress for D 202
lower second molars are D 200
local police forces with D 200
local police forces had D 198
lover should decide his D 196
loved horses better than D 196
local parish church was D 194
local landed gentry and D 194
lower oxygen tension and D 193
local credit bureaus and D 192
local police station that D 191
lower cardiac output than D 186
local livery stable and D 186
local tribal leaders who D 184
local police station had D 184
local public houses and D 182
local shipping points and D 180
local police forces can D 174
lower staffing levels and D 169
looks coolly around him D 166
local school boards has D 166
local church leaders are D 166
lower atomic weight and D 164
lower starting salary than D 162
local public sector has D 162
lower ticket prices and D 160
local police station but D 160
local tissue damage may D 158
local sporting events and D 158
local energy minima and D 156
lower ticket prices for D 152
local school policy and D 152
lower public spending and D 148
lower oxygen levels than D 148
lower income earners and D 148
local middle bronze age D 148
lower school grades and D 146
lower oxygen levels and D 144
lower energy levels for D 144
lower dosage levels than D 144
lofty square towers and D 144
local school boards but D 144
local parish school and D 144
lower profit margin per D 142
lower income strata and D 142
lower bridge street and D 142
local county courts and D 142
local building styles and D 142
lower valley slopes and D 140
lower export prices for D 140
lower energy levels can D 140
local police forces was D 140
lower income levels for D 138
local peasant leaders and D 138
local parish priest had D 138
lower photon energy than D 136
lower levels before you D 136
local public opinion has D 136
local branch office and D 136
lower plasma levels and D 135
loose cotton shirts and D 135
lower output levels than D 134
lower output levels and D 134
lower income groups did D 134
local oxygen tension and D 134
lower slopes clothed with D 132
lower income levels but D 130
local public spending and D 130
lower levels before they D 129
lower status groups who D 126
lover stamps around and D 126
looks hardly bigger than D 126
local income levels and D 126
local credit bureaus are D 126
lower starting torque than D 124
lower energy levels with D 124
lords record office for D 124
local police station has D 124
local public opinion can D 122
local liquor stores and D 122
local public office and D 120
lower energy levels may D 118
lower dosage levels and D 116
lower crushing strength than D 116
lower bounds greater than D 116
local patron saints and D 116
local parish priest for D 116
local tissue damage with D 114
lower atomic weight are D 112
local public opinion than D 112
lower signal levels than D 108
local tissue trauma and D 108
local opinion leaders are D 108
lower sexual desire and D 106
local church choirs and D 106
lower verbal scores than D 104
lower oxygen uptake than D 104
lower income levels who D 104
lower income groups both D 104
lower courts agreed that D 104
local school boards all D 104
local police station can D 104
lower income levels may D 102
longer public opinion has D 102
local public sector are D 102
local planning policy and D 102
local opinion leaders who D 102
loose strand behind her D 100
looks pretty barren and D 100
local tissue damage that D 99
lower salary levels than D 98
lower grades should not D 98
loved thyself better now D 98
loose cotton blouse and D 98
lower airway disease and D 97
local school boards did D 96
local energy minima for D 96
lower regent street was D 94
local tissue reaction with D 94
local sports events and D 94
local school boards not D 94
local record office and D 94
local policy issues and D 94
lower stress levels for D 93
lower school grades than D 92
lower income levels can D 92
lounge drinking coffee and D 92
local shopping center with D 92
local shopping center for D 92
local police should not D 92
local police forces who D 92
local police forces may D 92
local marine boards and D 92
local leaders called for D 92
local boards should not D 92
lower sacral nerves are D 90
lower regions abound with D 90
lower freezing points and D 90
lower dental arches and D 90
lower annual income than D 90
local retail stores are D 90
local police report that D 90
local police forces has D 90
local militia forces and D 90
local church leaders had D 90
lower copper prices and D 88
looking little puddle she D 88
local police powers and D 88
lower tarsal plates are D 86
lower salary scales than D 86
lower octane number than D 86
lower income groups not D 86
lower dollar prices for D 86
longer carbon chains are D 86
local shopping centre with D 86
local police agency may D 86
local police agency and D 86
local tribal groups and D 84
local church pastor and D 84
local building trades and D 84
local police powers had D 82
lower slopes dotted with D 80
lower income groups being D 80
looking grimly through his D 80
local tissue changes may D 80
local tissue changes and D 80
local shopping centre for D 80
local parish church with D 80
lower public esteem for D 67
local police agency that D 44
local public opinion that D 43
local militia turned out D 41
local leaders thought that D 41
loose fiscal policy with D 40
