effective public speaker and M 674
effective training ground for M 642
effective normal stress and M 508
effective family planning and M 412
effective market demand for M 394
effective market access for M 266
efficient energy source for M 264
effective excess demand for M 228
effective market access and M 212
effective starting points for M 206
effective training methods for M 202
effective stress greater than M 202
effective system design and M 180
effective public speaker who M 180
efficient supply chains and M 152
effective market access are M 146
effective training methods and M 142
efficient school system and M 120
efficient energy source than M 112
effective planning system for M 112
effective market demand and M 112
effective energy source for M 112
efficient crawling through url M 106
effective normal stress for M 106
efficient school system for M 104
effective labour supply and M 102
effective demand exists for M 102
efficient labour market and M 98
effective medium theories are M 98
effective breeding ground for M 98
efficient building design and M 96
effective lesson planning and M 94
effective public demand for M 92
effective building blocks for M 92
effective teacher training and M 88
effective school system and M 88
effective reward system for M 88
effective remedy exists for M 88
effective training school for M 86
effective nuclear charge for D 874
effective nuclear charge and D 854
effective atomic number and D 752
effective public policy and D 382
effective therapy exists for D 286
effective atomic number for D 278
effective annual income tax D 272
effective nuclear charge that D 254
effective public opinion and D 246
effective career planning and D 230
effective cardiac output and D 214
efficient secret weapons yet D 208
effective public policy for D 178
effective nuclear charge than D 166
efficient secret police and D 158
effective annual rental per D 158
effective plasma volume and D 152
efficient public sector and D 140
effective stress tensor and D 136
effective leaders realize that D 134
effective school leaders are D 116
effective policy planning and D 116
efficient police system was D 110
effective united nations and D 106
effective herbal remedy for D 106
effective public opinion was D 104
efficient postal system was D 102
effective rallying points for D 102
effective policy design and D 102
effulgent thought whence that D 90
efficient police system and D 88
effective plasma levels are D 88
effective dipole moment per D 88
effective atomic number than D 86
effective training device for D 82
effective public opinion can D 82
effective public policy that D 56
