high school teacher in M 15343
high school should be M 14390
high school course in M 12262
high school teacher of M 9840
high school pupils in M 9074
high school course of M 6699
high school degree or M 5469
high ground behind the M 3702
high import duties on M 3646
high priest became us M 3441
high ground beyond the M 3356
high school pupils to M 3255
high school building in M 3198
high school opened in M 2952
high school through the M 2846
high school teacher is M 2586
high school friend of M 2584
high school before the M 2441
high school course is M 2315
high school teacher to M 2290
high school pupils of M 2202
high school instead of M 2167
high school training in M 2136
high ground around the M 2116
high prices caused by M 2016
high enough degree of M 1894
high ground across the M 1872
high school building at M 1765
high school course or M 1762
high school building is M 1742
high school before he M 1742
high school building on M 1602
high school course at M 1490
high school across the M 1472
high school teacher at M 1450
high priest enters the M 1406
high school became the M 1398
high priest before the M 1331
high school pupils is M 1310
high school teacher or M 1304
high school number of M 1266
high school without the M 1208
high school system in M 1157
high school seemed to M 1144
high enough energy to M 1144
hide itself behind the M 1017
high ground before the M 986
high school record is M 958
high school course to M 952
high market shares in M 938
high school system of M 910
high school pupils as M 876
high school building to M 844
hire another person to M 842
high school training is M 826
high school degree in M 814
high enough values of M 810
high priest should be M 795
high school pupils by M 792
high school degree is M 786
high school record of M 730
high school appears to M 720
high school training or M 714
hide myself behind the M 714
high school version of M 700
high school course as M 676
high school course he M 648
high enough prices to M 644
high school course on M 642
high school pupils on M 636
high school wanted to M 608
high school teacher as M 586
high school training at M 576
high school record in M 572
high ground beyond it M 568
high values placed on M 558
high ground behind it M 556
high school pupils at M 548
high enough number of M 524
high school system is M 516
high ground beside the M 516
high prices should be M 506
high street toward the M 490
high school unable to M 488
high school building of M 488
high school credit in M 476
high school teacher on M 474
high profit margin on M 474
high school degree to M 468
high school training to M 456
hiding itself behind the M 452
high school pupils do M 432
high school teacher by M 430
high school course by M 430
high priest became the M 430
high import duties in M 410
high school called the M 400
high impact strength of M 398
high school around the M 396
high ground called the M 394
high school failed to M 388
high school serves as M 387
high priest through the M 386
high energy demand of M 384
high school served as M 375
high priest turned to M 375
high school course the M 374
high initial values of M 374
high school pupils the M 372
high degree useful to M 366
high import duties to M 364
high ground around it M 364
high school training as M 361
high school became an M 358
high ground toward the M 354
high enough return to M 354
high credit standing of M 354
high prices created by M 342
high ground covering the M 336
high school training of M 332
high school pupils or M 324
high points around the M 324
high profit margin of M 322
high profit margin is M 322
high market prices of M 322
high degree through the M 316
high school friend in M 312
high school closed in M 312
high street through the M 308
high impact strength at M 308
high school groups in M 304
high school offers an M 303
high street across the M 302
hire without regard to M 288
high school joined the M 286
high energy prices in M 286
high street stands the M 284
high school serves the M 282
high street should be M 276
high prices before the M 276
high prices instead of M 272
high school before we M 270
high school should do M 264
high ground formed by M 264
high school teacher he M 260
high profit margin in M 260
high relief around the M 258
high market shares of M 258
high school credit is M 254
high ground through the M 254
high impact strength is M 250
high school beyond the M 246
high school unless he M 244
high church school of M 244
high street before the M 242
high energy prices on M 242
high school toward the M 238
high school opened on M 238
high school itself is M 238
high school taught by M 234
high enough degree to M 234
high values should be M 228
high school offers the M 228
high school degree by M 228
high enough volume to M 224
high priest looked at M 223
high colors relating to M 222
hill whereon stands the M 220
high school record or M 220
high school degree as M 220
high priest called the M 218
high prices through the M 214
high ethical values by M 214
high energy needed to M 214
hiding myself behind the M 214
high school building or M 212
high import duties or M 212
high enough figure to M 212
high powers vested in M 210
high enough return on M 210
high energy states of M 206
high school pupils no M 204
high school member of M 204
high enough toward the M 202
high charge states of M 202
high school taught me M 200
high school record to M 200
high school proved to M 200
high school edition of M 200
high enough values to M 200
high school system to M 198
high ground should be M 198
high demand around the M 198
high school degree at M 196
high school before it M 196
high lights should be M 196
high energy output of M 196
high demand placed on M 196
high degree before the M 196
high yielding strain of M 188
high profit margin to M 188
high school should go M 184
high school pupils be M 184
high school needed to M 184
high purity should be M 184
high points reached in M 184
high number appears to M 184
high school teacher the M 182
high boughs prayed in M 180
high school unless the M 176
high looked through the M 176
high degree depend on M 176
hide behind claims of M 176
high handed manner in M 175
high standing should be M 174
high passes through the M 174
high market prices in M 174
high school record as M 173
high school marked the M 172
high safety factor in M 172
high annual volume of M 172
high school building as M 171
high safety factor of M 170
high enough volume of M 170
high stress caused by M 166
high enough ground to M 166
high school friend to M 164
high street seemed to M 163
high enough output to M 162
high enough yields to M 160
high initial degree of M 158
high energy prices of M 156
high school reform in M 154
high ground instead of M 154
high ethical manner in M 152
high street called the M 150
high standing amongst the M 150
high school without an M 150
high losses caused by M 150
high demand across the M 150
high street church of M 148
high school sample of M 148
high degree without the M 148
high school wishes to M 146
high school groups to M 146
hire another vessel to M 144
high priest unable to M 144
high enough regard to M 144
high custom duties on M 144
high school unless it M 142
high points should be M 142
high honour should be M 142
high handed methods of M 142
high school planning to M 140
high school called me M 140
high school reform is M 138
high prices result in M 138
high normal school in M 138
high enough chance of M 138
hill before spoken of M 136
high priest instead of M 136
hide behind layers of M 135
high relief through the M 134
high energy output in M 134
high street church in M 132
high school building be M 132
high safety factor is M 132
high enough before the M 132
high school methods of M 130
high ground behind us M 130
hide myself behind my M 130
high school engaged in M 129
high school building by M 128
high school nearest to M 126
high credit standing in M 126
high school teacher be M 125
high window behind the M 124
high seventh circle in M 124
high school stands on M 124
high school branch of M 124
high ethical training of M 124
high school opened at M 122
high school helped me M 122
high priest placed the M 122
high energy nature of M 122
high demand created by M 122
high street became the M 120
high school credit to M 120
high school behind me M 120
high ground marked by M 120
high gospel begins to M 120
high energy intake is M 120
high duties should be M 120
high signal around the M 118
high school served the M 118
high building across the M 118
high spirit yielding to M 116
high school worked as M 116
high import prices of M 116
high school system as M 115
high talent should be M 114
high street instead of M 114
high street branch of M 114
high school course be M 114
high public virtue to M 114
high energy events in M 114
high priest served as M 113
hire another writer to M 112
high standing before the M 112
high school debate on M 112
high impact strength to M 112
high degree useful in M 112
high values result in M 110
high priest sought to M 110
high values around the M 108
high school pupils it M 108
high initial number of M 108
high standing through the M 106
high school whether he M 106
high school should in M 106
high school groups is M 106
high energy states to M 106
high energy source is M 106
high church friend of M 105
hill another critic of M 104
high school record by M 104
high school papers in M 104
high school behind the M 104
high prices caused the M 104
high market values of M 104
high enough without the M 104
high enough standing to M 104
high energy demand in M 104
high yields without the M 102
high strain energy of M 102
high school through to M 102
high school offering the M 102
high school helped to M 102
high school groups of M 102
high prices without the M 102
high ground inside the M 102
high fighting spirit of M 102
hide behind instead of M 102
high yields should be M 100
high school opened the M 100
high school except in M 100
high school course if M 100
high school agreed to M 100
high regard placed on M 100
high passes across the M 100
high mental powers in M 100
high ground belongs to M 100
high figure should be M 100
high duties placed on M 100
high school through an M 98
high school remain in M 98
high priest standing at M 98
high priest serves in M 98
high labour demand in M 98
high energy intake in M 98
high stepping through the M 96
high spirit should be M 96
high school teacher we M 96
high school sample to M 96
high school belonging to M 96
high reward should be M 96
high impact strength in M 96
high energy prices to M 96
hire another person or M 95
high school opened as M 95
high school whether or M 94
high public spirit of M 94
high priest before he M 94
high prices reduce the M 94
high prices reached by M 94
high enough around the M 94
high energy prices is M 94
hiding something behind the M 94
hiding behind claims of M 94
hill middle school in M 92
high values before the M 92
high second moment of M 92
high school through my M 92
high school showed the M 92
high school covers the M 92
high school building the M 92
high school affect the M 92
high priest wished to M 92
high priest wanted to M 92
high praise indeed to M 92
high enough through the M 92
high energy losses in M 92
high waters caused by M 90
high school raises the M 90
high school course it M 90
high enough number to M 90
high energy release in M 90
high street beyond the M 88
high street behind the M 88
high strain energy in M 88
high school annual in M 88
high priest chosen by M 88
high praise indeed in M 88
high ethical values in M 88
hill battle reached the M 86
high school friend at M 86
high school degree the M 86
high school closer to M 86
high points reached by M 86
high ethical values of M 86
high enough signal to M 86
high enough behind the M 86
high enough almost to M 86
hill itself seemed to M 84
high school worked in M 84
high priest stands in M 84
high enough inside the M 84
high degree likely to M 84
hire another member of M 82
high school system or M 82
high school pupils go M 82
high priest opened the M 82
high demand caused by M 82
high degree should be M 82
hill without limiting the M 80
high volume output of M 80
high school remain to M 80
high school friend or M 80
high priest without the M 80
high priest seemed to M 80
high powers should be M 80
high degree belonging to M 80
high medium medium to M 58
high import duties as M 54
high church branch of M 40
high school seniors in D 22677
high plasma levels of D 7918
high school seniors or D 6071
high school seniors to D 4686
high school seniors of D 2837
high school grades in D 2280
high enough levels of D 2018
high enough levels to D 2002
high treason before the D 1998
high treason should be D 1810
high school seniors on D 1774
high initial levels of D 1589
high public office in D 1520
high starting torque is D 1498
high school player of D 1394
high bronze statue of D 1296
high school player in D 1254
hiking trails through the D 1249
high school seniors is D 1244
high school seniors as D 1175
high school reunion in D 1124
high atomic number of D 1102
high tissue levels of D 1100
high school grades as D 1032
high courts should be D 1028
high school grades of D 980
high school seniors at D 870
high school grades or D 866
high factor loadings on D 854
high bridge across the D 854
high school seniors by D 847
high stress levels in D 842
high school levels in D 832
high office should be D 812
high school juniors in D 802
high income groups in D 794
high oxygen tension in D 788
high school grades to D 766
hiring another person to D 760
hide spelling errors in D 745
high speeds through the D 728
high church bishop of D 725
high atomic weight of D 722
high school sports in D 714
high school career in D 712
high school athlete in D 706
high school grades is D 694
high levels reached in D 692
high tariff policy of D 678
high school juniors or D 662
high sodium intake is D 658
high school tended to D 650
high school section of D 646
hiding places around the D 602
high opinion formed of D 596
high energy portion of D 592
high levels through the D 588
high sounding titles of D 572
high enough opinion of D 564
high strength steels in D 552
high school seniors do D 540
high school shooting in D 516
high cardiac output is D 512
high energy levels of D 506
high dosage levels of D 504
high places should be D 500
high school levels of D 498
high priest entering the D 493
high enough income to D 490
high places through the D 484
high school reunion is D 460
high atomic number is D 458
high starting torque of D 454
high plateau called the D 450
high school juniors to D 446
high cardiac output in D 442
high enough levels in D 440
hiding places behind the D 433
high energy levels in D 432
high enough grades to D 428
high repute amongst the D 424
high school career at D 422
hiking trails around the D 415
high oxygen demand of D 414
high school levels to D 412
high export duties on D 412
high school career as D 410
high school athlete of D 410
high priest entering by D 405
high oxygen levels in D 402
high dipole moment of D 402
high school levels is D 398
high income levels in D 396
high opinion indeed of D 388
high tariff duties on D 382
high sodium levels in D 378
high income groups to D 372
high energy levels to D 370
high office through the D 362
high school levels as D 358
high public office is D 358
high thermal inertia of D 354
high income earners in D 350
high school biology in D 348
high school athlete is D 348
high school athlete to D 340
high church section of D 335
hire another lawyer to D 334
high levels before the D 332
high esteem amongst the D 332
high coffee prices in D 330
high school campus in D 324
high duties levied on D 324
high school survey of D 320
high school seniors the D 314
high income levels of D 314
high enough status to D 310
high copper levels in D 306
hiding places should be D 304
high income groups is D 300
high enough scores to D 296
high sodium intake in D 294
high plains section of D 291
high school career of D 290
high standing stocks of D 286
high school grades the D 284
high retail prices of D 282
high strength steels is D 278
high speeds without the D 276
high public office or D 272
high office without the D 272
high enough speeds to D 266
high school sports to D 264
high school sports as D 264
high school player to D 264
high school career is D 262
high starting torque at D 258
high church faction in D 257
high speeds across the D 256
high school sports is D 256
high school levels the D 256
high public office to D 256
high office before the D 256
high income earners to D 256
high energy photon is D 256
high stress levels at D 254
high income groups of D 252
high church clergy of D 252
high status groups in D 250
high school career to D 248
high levels should be D 246
high stress levels the D 244
high speeds should be D 244
high vacuum inside the D 242
high school career he D 238
high atomic weight is D 238
high desert plateau of D 234
high cardiac output to D 234
high treason whereof he D 232
high school reunion or D 230
high cardiac output or D 230
high enough esteem to D 228
high vacuum system is D 226
high status through the D 224
high fences around the D 224
high bridge before the D 224
high atomic number in D 224
high school biology is D 222
high ground flanking the D 220
high public spending on D 218
high factor loadings in D 218
high carbon steels is D 218
high carbon steels the D 214
high bridge spanning the D 214
high school reunion to D 212
high atomic number to D 210
high alpine meadows of D 210
high oxygen tension on D 208
high excise duties on D 208
high public office as D 207
high school dances in D 206
high enough salary to D 206
high carbon dioxide or D 206
high school grades on D 204
high school grades do D 202
high repute before the D 202
high octane number of D 202
high bluffs across the D 202
high plasma levels in D 198
high levels reached by D 198
high carbon dioxide in D 198
high places around the D 196
high enough scores on D 196
high stress levels of D 194
high plateau regions of D 194
high degree suited to D 194
high school grades by D 190
high carbon steels in D 190
high stress levels or D 188
high dollar volume of D 188
high station pleased me D 186
high school portion of D 186
high oxygen tension is D 186
high scores should be D 184
high marble statue of D 184
high ground whence the D 184
high school reunion as D 182
high visual acuity is D 180
high status person is D 180
high cardiac output of D 180
high ammonia levels in D 180
high school grades at D 178
high factor scores on D 178
high tariff policy in D 176
high school housed in D 176
high plateau beyond the D 176
high atomic number the D 176
hiring without regard to D 174
high status person in D 174
high oxygen tension of D 174
high church clergy in D 173
high school seniors go D 172
high school french to D 172
high public office by D 172
high places before the D 172
hill showed traces of D 170
high visual acuity of D 170
high visual acuity in D 170
high scores tended to D 168
high school french in D 168
high plains beyond the D 168
high income levels the D 168
high energy regions of D 168
high cotton prices in D 168
high stress levels is D 166
high speeds around the D 166
high sodium intake on D 164
high pollen values of D 164
high photon energy of D 164
high tension supply to D 162
high strength steels to D 162
high school boards of D 162
high plateau broken by D 162
high profit levels in D 160
high normal levels of D 160
high export prices of D 160
high energy cutoff of D 160
high school biology or D 158
hill slopes around the D 156
high vacuum system of D 156
high status member of D 156
high starting torque or D 156
high oxygen demand in D 156
high office unless he D 156
high energy levels or D 156
hiss vainly through the D 152
high school juniors at D 152
high school career by D 152
high esteem placed on D 152
high opinion formed by D 150
high duties levied by D 150
high church curate of D 150
high school reunion at D 148
high energy levels by D 148
high vacuum should be D 146
high school sports or D 146
high ritual status of D 146
high eastern slopes of D 146
high desert plains of D 146
high tension supply is D 144
high cotton prices of D 144
hiking trails follow the D 142
high profit levels of D 142
high stress levels on D 140
high school player at D 140
high prices tended to D 140
high levels across the D 140
hiring another worker is D 138
high retail prices in D 138
high obliging esteem of D 138
high collar looked as D 138
high church portion of D 138
high school campus is D 136
high stools before the D 134
high stakes nature of D 134
high school tuition is D 134
high public office he D 134
high estate through the D 134
high desert museum in D 134
high chairs around the D 134
high alpine regions of D 134
high collar turned up D 133
high church rector of D 133
hiding places amongst the D 133
high towers flanking the D 132
high ticket prices to D 132
high signal lesions on D 132
high public office at D 132
high arched palate is D 132
hill before entering the D 130
high purity oxygen is D 130
high public esteem in D 130
high plains toward the D 130
high french window of D 130
high crushing strength of D 130
hill slopes should be D 128
high school settings in D 128
high office seemed to D 128
high levels result in D 128
high enough dosage to D 128
high dosage should be D 128
high school biology to D 126
high levels needed to D 126
high existing levels of D 126
hill tracts should be D 124
high school status in D 124
high public office of D 124
high ground abutting on D 124
hiding places before the D 124
high stress levels as D 123
hips should always be D 122
high wooden statue of D 122
high octane number is D 122
high levels around the D 122
high gilded statue of D 122
hiding behind bushes to D 122
high tension cables to D 120
high stress levels to D 120
high sodium intake or D 120
high plateau behind the D 120
high import tariff on D 120
high cirrus clouds in D 120
high sulfur levels in D 118
high sounding titles as D 118
high school french is D 118
high income groups or D 118
high treason passed the D 116
high stools around the D 116
high starting torque to D 116
high stakes placed on D 116
high office building in D 116
high office before he D 116
high factor loadings of D 116
high coffee prices of D 116
high station without the D 114
high copper prices in D 114
high school runner in D 112
high school leavers in D 112
high purity grades of D 112
high energy levels is D 112
hill thought swells to D 111
hill tribes should be D 110
high tension system is D 110
high tariff should be D 110
high signal levels of D 110
high income should be D 110
high family income is D 110
high carbon steels of D 110
hiding places inside the D 110
high strength steels the D 108
high strength steels of D 108
high starting torque in D 108
high policy should be D 108
high esteem through the D 108
high station should be D 106
high school juniors on D 106
high school french or D 106
high output levels in D 106
high desert regions of D 106
high station amongst the D 104
high signal levels the D 104
high places amongst the D 104
high nuclear charge of D 104
high handed policy of D 104
high bronze figure of D 104
high atomic weight or D 104
high atomic number or D 104
high tension caused by D 102
high standing collar of D 102
high estate before the D 102
high colony counts of D 102
hill tribes showed in D 100
high school career on D 100
high grades should be D 100
high feudal office of D 100
high female status in D 100
high colony counts in D 100
high cardiac output at D 100
high atomic weight to D 100
high atomic weight in D 100
high courts relating to D 99
high church clergy to D 99
high school tuition of D 98
high school athlete at D 98
high levels without the D 98
high inland plateau of D 98
high export prices in D 98
high barred window of D 98
hide behind bushes or D 98
hiding places across the D 97
high status groups to D 96
high speeds toward the D 96
high speeds needed to D 96
high school reunion of D 96
high school campus to D 96
high plateau through the D 96
high intake levels of D 96
high initial scores on D 96
high income levels or D 96
high vacuum system to D 94
high relief carvings of D 94
high cardiac output as D 94
hill sloped gently to D 92
high thermal energy of D 92
high temper enough to D 92
high forest skirting on D 92
high sounding titles to D 90
high oxygen tension to D 90
high office instead of D 90
high income levels to D 90
high esteem before the D 90
high energy photon or D 90
high crushing strength is D 90
high treason appears to D 88
high tension created by D 88
high tariff levels in D 88
high status amongst the D 88
high school seniors it D 88
high school player is D 88
high school campus or D 88
high places seemed to D 88
high places instead of D 88
high labour inputs in D 88
high energy photon of D 88
high dollar amount of D 88
high degree opaque to D 88
high status groups as D 86
high signal levels in D 86
high school athlete or D 86
high plateau around the D 86
high places without the D 86
high levels toward the D 86
high income groups the D 86
high enough dosage of D 86
high dosage levels in D 86
high cliffs behind the D 86
high chalky cliffs of D 86
high breathings behind the D 86
high bluffs beyond the D 86
hiding behind clumps of D 86
high tariff duties of D 84
high tariff duties in D 84
high school sports at D 84
high ritual status in D 84
high repute accept the D 84
high policy makers in D 84
high bridge crossing the D 84
high waters impeding the D 82
high strength alloys of D 82
high sodium intake of D 82
high signal levels is D 82
high school reveals the D 82
high ridges formed by D 82
high school dances or D 80
high school civics or D 80
high duties levied in D 80
high desert plateau in D 80
high carbon steels it D 80
hive bodies should be D 62
high income groups as D 62
high school diaries of D 51
hill without stopping to D 49
high church notions of D 48
high starting torque as D 46
high school juniors as D 42
