high school teacher and M 13419
high school teacher who M 10559
high school pupils are M 4517
high school pupils and M 4456
high school building was M 4203
high school course and M 3613
high school degree and M 3014
high school pupils who M 2702
high school building and M 2538
high school teacher was M 2440
high school should not M 2310
high school record and M 2194
high school teacher for M 1938
high school teacher with M 1916
high school friend who M 1890
high impact strength and M 1847
high medium medium low M 1594
high school credit for M 1592
high import duties and M 1572
high school before they M 1486
high school course was M 1404
high school training and M 1384
high school teacher has M 1246
high school teacher had M 1196
high school credit may M 1192
high school debate team M 1097
high energy prices and M 1046
high school pupils with M 1021
high school friend and M 1006
high school course for M 922
high school building for M 870
high school before going M 858
high school without any M 830
high school before she M 816
high school pupils can M 788
high school opened its M 786
high school teacher can M 762
high school teacher may M 752
high degree curious and M 726
high praise indeed for M 700
high market prices for M 694
high school pupils for M 692
high priest before god M 666
high school degree was M 656
high school training for M 652
high school course with M 652
high school record was M 642
high school pupils may M 626
high school showed that M 621
high school without being M 614
high school pupils how M 612
high profit margin and M 594
high school training was M 590
high school pupils was M 584
high school system and M 548
high market shares and M 548
high school degree are M 524
hiding something behind his M 522
high school course that M 514
high school record for M 486
high school groups and M 484
high public spirit and M 482
high school system was M 466
high school before you M 434
high school building with M 426
high school except for M 414
high school before his M 414
high school teacher that M 408
high school course are M 398
high priest raised his M 398
high market demand for M 392
high school pupils than M 384
high school swimming team M 380
high priest should not M 377
high school pupils has M 374
hiding something behind her M 370
high school course has M 368
high school degree but M 348
high energy intake and M 340
high school building has M 336
high school unless they M 326
high enough prices for M 324
high school turned out M 316
high street without any M 314
high school pupils had M 312
high market prices and M 312
high school sample and M 310
high school before her M 308
high school before being M 304
high ground behind them M 298
high school speech and M 296
high safety factor for M 290
high school debate and M 284
high energy output and M 280
high school building that M 274
high public regard for M 272
high school pupils that M 262
high school degree for M 258
high school standing and M 256
high school system has M 254
high school groups are M 254
high school course may M 254
high school degree has M 250
high energy demand and M 250
high school building had M 244
high public demand for M 244
high school teacher but M 242
high school training are M 236
high energy prices are M 230
high import duties are M 222
high market demand and M 220
high school stated that M 218
high school credit and M 218
high market shares are M 218
high credit standing and M 218
high street stores and M 216
high profit margin for M 214
high school unless you M 212
high school friend had M 210
high enough regard for M 210
high school system that M 204
high school methods with M 204
high school course had M 204
high school record with M 200
high school except that M 200
high school building now M 198
high safety factor and M 196
high school teacher are M 194
high school annual and M 192
high school degree had M 184
high school degree with M 182
high school friend was M 180
high school teacher than M 178
high ethical values and M 178
high school readers and M 174
high school behind him M 174
high import duties for M 172
high strength values are M 168
high school course but M 168
high school itself was M 166
high school record that M 165
high school pupils read M 164
high school teacher does M 162
high school reform and M 162
high school filled with M 162
high ground behind him M 162
high school papers are M 160
high school training had M 158
high street loaded with M 154
high school sample was M 154
high priest placed his M 154
high output powers are M 154
high energy demand for M 152
high school papers and M 150
high energy states are M 150
high school events and M 148
high school degree than M 148
high school training with M 146
high school opened with M 146
high school friend that M 146
high school course can M 146
high school better than M 146
high liquid limits and M 146
high school filled his M 144
high ground behind and M 144
high energy needed for M 144
high school training has M 142
high praise indeed and M 142
high school course does M 140
high school training but M 138
high school teacher you M 138
high school teacher did M 138
high school annual this M 138
high degree unjust and M 138
high school teacher she M 134
high school course she M 134
high school system with M 132
high degree without any M 132
high school degree who M 130
high labour demand and M 130
high proper motions that M 129
high school pupils not M 128
high school pupils but M 126
high school before that M 126
hiding nobody hunted you M 126
hide turned inside out M 125
high visual impact and M 124
high school without doing M 124
high school manual for M 124
high output powers and M 124
high energy states and M 124
high school through his M 122
high school system had M 122
high school readers are M 122
high ground poured out M 122
high charge states and M 122
high school methods and M 120
high import prices and M 120
high mental powers and M 116
hiding something behind that M 116
hiding behind another man M 116
high school friend with M 114
high market shares may M 114
high enough values for M 114
hire almost anyone who M 112
high degree costly and M 112
high school system for M 110
high market values and M 110
high import prices for M 110
high school opened for M 108
high school through its M 106
high school teacher put M 106
high school degree may M 106
high prices without any M 106
high school building are M 104
high global demand for M 104
high course before him M 104
high school without her M 102
high school center for M 102
high priest before his M 102
high ground beyond and M 102
high enough praise for M 102
high demand periods and M 102
high school whether they M 100
high latent demand for M 100
high charge states are M 100
high signal strength and M 98
high school record has M 98
high school exists for M 98
high profit margin with M 98
high school teacher now M 96
high school itself has M 96
high priest raises his M 96
high enough surely for M 96
high public standing and M 94
high profit margin but M 94
high impact strength are M 94
hire another person for M 92
high school degree can M 92
high school before this M 92
high prices should not M 92
high enough without being M 92
high enough energy that M 92
high school report that M 91
hire another person who M 90
high window behind him M 90
high market values for M 90
high initial strength and M 90
high initial prices and M 90
high ground before them M 90
high school begins with M 88
high school training than M 86
high regard should not M 86
high priest called out M 86
high labour demand for M 86
high enough energy for M 86
high degree without being M 86
high school pupils did M 84
high school earlier than M 84
high energy events are M 84
high street before they M 82
high school course you M 82
high impact forces and M 82
high ground before they M 82
high energy events and M 82
high school should aim M 80
high school record had M 80
high energy losses and M 80
high import duties that M 61
high school walked out M 59
high energy states that M 45
high profit margin that M 44
high school training that M 43
high school seniors who D 20415
high school seniors and D 15712
high school juniors and D 11781
high school grades and D 8683
high school seniors are D 4418
high starting torque and D 3229
high school seniors with D 2885
high school seniors had D 2854
high school grades are D 2844
high energy cosmic ray D 2533
high cardiac output and D 2192
high stress levels and D 1669
high energy levels and D 1517
high atomic number and D 1326
high school soccer team D 1320
high school sports and D 1260
high school biology and D 1238
high carbon dioxide and D 1146
high school reunion and D 1132
high school seniors was D 1060
high school levels and D 1058
high income levels and D 1052
high school tennis team D 1050
high strength steels and D 1044
high school athlete who D 1036
high school seniors for D 1026
high public office and D 1014
high income groups and D 998
high school career and D 976
high starting torque with D 934
high school career was D 926
high school seniors has D 878
high school seniors can D 844
high school debating team D 818
high school juniors who D 792
high carbon steels are D 784
high arched palate and D 774
high school dances and D 758
high school french and D 734
high school athlete and D 718
high stress levels are D 695
high school seniors that D 694
high school seniors may D 686
high school levels are D 674
high school hockey team D 671
high strength steels are D 652
high atomic weight and D 634
high sodium intake and D 604
high public spending and D 596
high school grades for D 556
high school sports are D 545
high school grades than D 540
high income earners and D 532
high school sports for D 530
high income groups are D 524
high atomic number are D 512
high oxygen demand and D 482
high oxygen tension and D 478
high sounding titles and D 472
hiding behind bushes and D 471
high carbon steels and D 470
high energy levels are D 454
high strength steels for D 439
high ticket prices and D 432
high school seniors say D 428
high energy proton beam D 424
high atomic weight are D 424
high crushing strength and D 418
high school tuition for D 416
high visual acuity and D 410
high stress levels can D 394
high factor loadings for D 380
high strength steels with D 370
high octane number and D 370
high church theology and D 365
high fences topped with D 358
high vacuum system and D 356
high coffee prices and D 356
high school chorus and D 354
high plasma levels are D 354
high school career with D 352
high sodium intake may D 348
high energy output per D 348
high tariff policy and D 342
high school seniors did D 340
high dipole moment and D 338
high school grades with D 336
high school grades was D 336
high plasma levels and D 336
high export prices and D 330
high cardiac output with D 328
high school sports team D 321
high school leaders and D 320
high income levels are D 308
high school grades may D 304
high export prices for D 304
high starting torque but D 298
high alpine meadows and D 298
high energy photon and D 294
high school player who D 288
high school campus and D 288
high public office for D 286
high standing collar and D 280
high school reunion was D 278
high oxygen levels and D 274
high income earners are D 274
high stress levels that D 268
high school seniors each D 268
high income groups who D 266
high courts should not D 266
high church clergy and D 265
high school seniors use D 262
high school biology lab D 262
high school levels for D 258
high cotton prices and D 258
hide behind bushes and D 258
high retail prices and D 250
high signal levels and D 248
high purity metals and D 248
high tension cables and D 244
high school grades had D 242
high school career that D 242
high school status and D 240
high school seniors using D 238
high vacuum system with D 234
high school career day D 232
high family income and D 232
high double collar and D 230
high income groups than D 226
high energy levels that D 224
high sodium intake has D 223
high school leavers and D 220
high nickel alloys are D 220
high retail prices for D 218
high thermal inertia and D 216
high school player and D 216
high school seniors than D 214
high school biology for D 208
high income earners who D 206
high stress levels for D 202
high school coaching job D 202
hide itself behind yon D 201
high square yellow cap D 200
high school civics and D 200
high factor loadings and D 200
high public office are D 198
high copper prices and D 198
high school reunion that D 196
high sodium intake can D 194
high public office was D 194
high public esteem and D 194
high status groups and D 190
high status groups are D 188
high school juniors with D 188
high income levels than D 188
high school grades can D 186
high ritual status and D 184
high stress levels may D 178
high school juniors are D 178
high enough levels for D 178
high vacuum system for D 174
high tariff policy was D 174
high school reunion with D 174
high purity copper and D 174
high cardiac output may D 174
high plains cotton area D 173
high school athlete with D 172
high energy photon beam D 172
high energy inputs and D 172
high school french was D 168
high floods swamps her D 168
high estate doctor long D 168
high public office who D 166
high ticket prices for D 164
high cirrus clouds and D 164
high school grades that D 163
high output levels and D 162
high income groups with D 162
high cirrus clouds that D 162
high school soccer and D 160
high oxygen levels are D 160
high school seniors but D 158
hide behind stumps and D 158
high tension cables are D 154
high school grades but D 154
high energy levels can D 154
high school career had D 152
high worker morale and D 150
high school tuition and D 150
high school settings and D 150
high school tuition was D 148
high school levels can D 148
high energy levels for D 148
high school seniors going D 146
high school levels has D 146
high school choirs and D 146
high public office had D 146
high arched palate with D 146
high school biology that D 145
high starting torque for D 142
high tariff duties and D 140
high school seniors now D 140
high fences around them D 140
high energy lasers and D 140
high atomic number for D 140
high school sports was D 138
high wooden ridges with D 136
high school leavers who D 136
high nickel alloys and D 136
high arched palate may D 136
high wooden fences and D 134
high profit levels and D 134
high degree humane and D 134
high school levels who D 132
high school office and D 130
high public office has D 130
high income groups can D 130
high strength alloys are D 128
high school sports has D 128
high photon energy and D 128
high labour inputs and D 128
high esteem amongst them D 128
high vacuum system was D 126
high oxygen tension for D 126
high income earners with D 126
high barred window and D 126
high school coaching and D 124
high plasma levels may D 124
high output levels are D 124
high family status and D 124
high palace roofed with D 122
high carbon steels with D 122
high office through his D 120
high stress levels with D 118
high stress levels due D 118
high school seniors they D 118
high school grades who D 118
high office without any D 118
high levels needed for D 118
high carbon steels for D 118
high carbon steels can D 118
high verbal skills and D 116
high public office with D 116
high income levels for D 116
high energy proton and D 116
high tariff levels and D 114
high school levels with D 114
high profit levels for D 114
high atomic number than D 114
high arched ceilings and D 114
high standing collar was D 112
high wooden ceilings and D 110
high stroke volume and D 110
high school athlete may D 110
high public station and D 110
hide behind stones and D 110
high vacuum needed for D 108
high sodium intake was D 108
high school seniors read D 108
high school levels than D 108
high school campus for D 108
high school athlete was D 108
high oxygen demand for D 108
high public esteem for D 106
hill police station and D 104
high starting torque can D 104
high school sports that D 104
high school levels was D 104
high school athlete has D 104
high oxygen uptake and D 104
high levels without any D 104
high ground whence they D 104
high atomic number can D 104
high school reveals that D 103
high piston speeds and D 102
high narrow houses and D 102
high factor scores for D 102
high church spires and D 102
high carbon steels may D 102
high velvet collar and D 100
high strength steels has D 100
high school seniors not D 100
high school reunion for D 100
high purity helium gas D 100
high profit margin per D 100
high places should not D 100
high income groups may D 100
high yielding clones and D 98
high income levels but D 98
high strength steels can D 96
high status versus low D 96
high school seniors how D 96
high school boards and D 96
high plains before its D 96
high flight speeds and D 96
high enough levels that D 95
high strength levels and D 94
high signal levels are D 94
high school grades has D 94
high public career was D 94
high oxygen tension may D 94
high cirrus clouds are D 94
high school juniors can D 92
high levels should not D 92
high income groups was D 92
high fashion stores and D 92
high choker collar and D 92
high backed chairs and D 92
high tariff policy that D 91
high staffing levels and D 90
high speeds needed for D 90
high sodium levels and D 90
high school runner who D 90
high school dances with D 90
high relief carvings and D 90
high export demand for D 90
high atomic number with D 90
high strength alloys and D 88
high school career for D 88
high ammonia levels and D 88
high travel speeds and D 86
high strength levels are D 86
high octane aviation gas D 86
high atomic number may D 86
high treason should not D 84
high strength fibers are D 84
high status groups who D 84
high speeds without any D 84
high school player was D 84
high nuclear charge and D 84
high school status with D 82
high school sports with D 82
high school reunion this D 82
high public office than D 82
high income levels may D 82
high cardiac output can D 82
high school french for D 80
high public office can D 80
high mutual esteem for D 80
high initial outlay and D 80
high figure struck him D 80
hiding behind chairs and D 80
high church ritual and D 73
high atomic number that D 54
high retail prices that D 52
high school levels that D 50
high church theology was D 50
high church clergy who D 44
