higher energy prices and M 1792
higher normal school for M 1396
higher profit margin than M 1290
higher import prices and M 878
higher market prices for M 766
higher normal school and M 739
higher energy states are M 650
higher impact strength than M 616
higher energy prices are M 536
higher energy states and M 472
higher import duties and M 418
higher normal school was M 415
higher impact strength and M 412
highly liquid assets that M 395
higher market prices than M 364
higher market prices and M 358
higher profit margin and M 348
higher import prices for M 342
higher profit margin for M 340
higher ground behind them M 340
hinted pretty clearly that M 310
higher strength values than M 308
higher market shares and M 286
higher energy states than M 276
hidden agenda behind this M 248
highly valued friend and M 240
higher market shares than M 240
higher market values than M 222
higher prices abroad than M 214
higher energy intake than M 212
higher output prices and M 210
higher energy prices that M 209
highly liquid assets and M 208
hidden behind clouds and M 206
higher energy prices may M 204
higher import duties than M 188
higher mental powers are M 183
higher energy prices for M 176
higher market values for M 160
higher safety factor than M 158
higher charge states and M 158
higher prices without any M 156
higher output powers and M 148
highly liquid assets are M 144
higher annual return than M 142
higher import prices are M 140
higher version number than M 138
higher charge states are M 138
higher mental powers than M 132
higher energy intake and M 130
higher mental powers and M 127
higher posted prices and M 126
higher credit standing than M 126
higher energy states can M 124
higher energy prices than M 124
higher beyond thought than M 124
highly useful source for M 122
highly placed person who M 122
higher market shares are M 120
higher future prices may M 116
higher market values and M 112
higher energy values than M 112
higher energy output than M 112
higher public spirit and M 110
highly public affair with M 106
higher future prices and M 105
highly gifted writer and M 100
higher market shares for M 100
highly placed public men M 98
higher safety factor for M 98
higher energy prices can M 96
higher import duties are M 94
higher energy states with M 92
higher factor prices and M 90
hidden behind clouds for M 90
highly liquid market for M 88
higher strength values are M 86
higher energy demand for M 86
hidden agenda behind his M 86
highly valued except for M 82
higher credit limits and M 82
higher ground through this M 80
higher ground behind him M 80
higher ethical values than M 51
higher middle school and M 44
higher import prices that M 41
higher income groups and D 2846
higher income groups are D 2054
higher atomic number than D 1950
higher income levels and D 1860
higher income levels than D 1412
higher atomic weight than D 1368
higher energy levels and D 1312
higher energy levels are D 1294
higher stress levels than D 1072
higher energy levels than D 1068
higher income groups than D 894
higher income groups who D 870
higher income levels are D 858
higher stress levels and D 610
higher cardiac output and D 578
higher atomic number and D 538
higher ticket prices and D 440
higher family income and D 438
higher octane number than D 431
higher retail prices for D 426
higher starting salary than D 380
higher income groups can D 380
higher plasma levels than D 376
higher starting torque than D 371
higher annual income than D 363
higher income groups may D 356
higher income levels for D 352
higher export prices and D 328
higher plasma levels and D 320
higher family income than D 316
higher status groups and D 304
higher retail prices and D 297
highly useful device for D 290
higher atomic number are D 288
higher export prices for D 274
higher income groups with D 268
higher income groups was D 266
higher stress scores than D 257
higher status groups are D 256
higher income groups pay D 252
higher public spending and D 242
higher starting torque and D 240
higher crushing strength than D 236
higher output levels and D 232
higher income groups had D 232
higher income groups for D 232
higher recall scores than D 226
higher income groups that D 223
higher carbon steels are D 222
higher dollar prices for D 212
higher income earners and D 210
higher school grades than D 208
higher ritual status than D 200
higher output levels than D 200
hidden behind bushes and D 195
higher cardiac output than D 193
higher income groups but D 192
higher stress levels are D 190
higher salary levels and D 188
higher oxygen tension than D 188
higher dipole moment than D 184
higher strength steels and D 182
higher income groups has D 180
higher carbon dioxide and D 180
highly valued skills and D 174
hidden behind hedges and D 171
higher salary levels than D 164
higher degree convex than D 164
higher energy levels with D 162
higher atomic weight are D 161
higher atomic weight and D 161
higher stress levels for D 160
highly saline waters are D 158
higher income levels may D 154
higher cotton prices and D 154
higher monthly income than D 152
higher energy levels for D 152
higher salary scales than D 148
higher coffee prices and D 146
higher stroke volume and D 144
higher retail prices than D 144
higher plasma levels are D 144
higher income levels can D 144
higher output levels are D 142
higher dollar amount than D 138
higher levels should not D 136
higher levels before they D 136
higher verbal scores than D 135
higher photon energy than D 134
higher school grades and D 132
higher oxygen uptake than D 132
hissed closed behind him D 130
higher salary scales and D 126
higher ticket prices for D 124
higher starting salary and D 124
hidden motive behind all D 123
highly spiced dishes and D 122
higher ticket prices than D 122
higher profit levels than D 122
higher carbon steels and D 122
higher visual acuity than D 121
higher staffing levels and D 120
higher photon energy and D 120
higher energy levels can D 120
highly arched palate and D 118
higher profit margin per D 118
higher oxygen levels than D 118
higher income groups did D 116
higher energy levels may D 116
higher strength steels are D 114
higher income limits for D 114
higher energy levels that D 113
higher atomic number has D 113
higher annual salary than D 111
higher income levels but D 110
higher income earners are D 110
higher income earners who D 108
higher course grades than D 108
higher strength steels with D 106
higher ritual status and D 106
higher enzyme levels than D 106
higher strength levels than D 104
higher empathy scores than D 102
higher octane number and D 101
higher nuclear charge and D 101
higher strength levels are D 100
higher plasma levels for D 100
higher salary scales for D 98
higher oxygen levels and D 98
higher status groups than D 96
higher spending levels for D 96
higher family income was D 94
higher lighting levels than D 92
higher income levels who D 92
higher income groups use D 92
higher grades always has D 90
higher piston speeds and D 88
highly ingenious scheme with D 86
higher status levels and D 86
higher atomic weight has D 85
higher status levels than D 84
higher oxygen tension and D 84
higher income levels with D 84
higher atomic weight may D 84
hidden source whence they D 82
higher income levels that D 55
higher future income and D 54
higher public esteem than D 51
higher starting torque with D 48
higher initial levels and D 46
