its way slowly through M 5666
its own proper nature M 4508
its own school system M 3262
its way toward becoming M 2756
its way upward through M 2631
its own proper object M 2560
its own merits without M 2412
its own course without M 1856
its way slowly across M 1534
its own weight without M 1494
its own little garden M 1410
its own immune system M 1342
its own standing orders M 1340
its way through narrow M 1320
its own proper limits M 1288
its way through various M 1268
its own unique system M 1248
its own special nature M 1248
its own proper domain M 1240
its own training school M 1216
its way slowly toward M 1152
its way through cracks M 1062
its own special methods M 1058
its head turned toward M 1026
its own nature without M 996
its own member states M 930
its own unique number M 922
its own weight through M 890
its way through another M 883
its own divine origin M 882
its own mental states M 868
its long course through M 868
its own annual report M 866
its being changed without M 842
its own belief system M 802
its own narrow limits M 784
its own proper effect M 782
its own unique design M 756
its own weight before M 748
its own church building M 741
its own narrow circle M 724
its two stable states M 718
its own course through M 694
its use should always M 676
its net profit margin M 670
its own unique manner M 658
its own common shares M 656
its own proper strength M 652
its own special object M 638
its own special effect M 632
its own divine nature M 626
its own proper virtue M 618
its own proper ground M 599
its own special merits M 594
its own energy source M 586
its own unique values M 584
its own special mission M 578
its way through almost M 574
its own mighty claims M 572
its own little circle M 562
its own unique nature M 544
its own special system M 544
its own special domain M 544
its own merits before M 542
its own special dangers M 532
its own special manner M 528
its own little corner M 528
its own proper merits M 526
its being opened without M 526
its own unique methods M 518
its own unique version M 516
its own weight unless M 512
its own normal values M 510
its own nature through M 509
its own training centre M 507
its own public school M 486
its own ground forces M 483
its own special duties M 476
its own special reasons M 474
its way upward toward M 456
its own nature mortal M 446
its own vicious circle M 438
its own proper powers M 436
its own proper colour M 436
its own special design M 430
its own supply system M 426
its way through layers M 418
its own unique format M 418
its long shadow across M 418
its own closed system M 414
its own future without M 412
its own special version M 406
its own weight forced M 404
its being pulled through M 404
its own credit standing M 401
its own special values M 400
its own without further M 394
its own proper methods M 392
its own choosing without M 390
its own innate strength M 384
its own training center M 380
its use became common M 378
its own unique energy M 376
its own nature always M 376
its own shares unless M 374
its own future course M 374
its own special rights M 372
its own special little M 372
its own unique issues M 370
its own proper duties M 368
its own special genius M 366
its own united states M 363
its own nature merely M 362
its way without further M 360
its own chosen ground M 358
its way through fields M 356
its own special powers M 356
its own energy supply M 356
its being placed before M 356
its new church building M 354
its own little window M 352
its being safely vested M 352
its being passed through M 352
its own special branch M 349
its way safely through M 348
its own travel agency M 348
its own proper course M 348
its own inward nature M 348
its own shares except M 346
its own innate powers M 344
its own rights should M 342
its own special virtue M 336
its own strength without M 334
its own little domain M 334
its own special forces M 332
its own shares without M 332
its own little church M 332
its two former owners M 326
its own formal object M 326
its own course toward M 324
its own unique mission M 322
its own random number M 320
its own future through M 318
its own divine mission M 318
its own proper forces M 316
its own little spiral M 316
its own unique course M 312
its own weight causes M 311
its own direct object M 310
its head pointing toward M 306
its own proper spirit M 302
its heat passes through M 300
its own lighting system M 298
its way slowly around M 297
its own future states M 296
its then existing limits M 294
its own without regard M 292
its own unique effect M 284
its own proper reality M 284
its own proper weight M 282
its own direct access M 278
its way through without M 276
its own unique spirit M 276
its own special reality M 274
its own reality through M 274
its own proper person M 274
its own profit center M 274
its own little valley M 274
its own proper matter M 270
its own hidden agenda M 268
its own reform agenda M 266
its own higher nature M 266
its own school building M 265
its own colour scheme M 260
its long voyage across M 260
its own special training M 258
its own combat forces M 258
its own special symbol M 256
its way without regard M 254
its own special points M 254
its own prison system M 254
its way through crowds M 252
its own special ground M 250
its own special colour M 249
its own finite nature M 246
its one window looked M 246
its own fighting forces M 244
its way through matter M 242
its own proper medium M 242
its six member states M 240
its own direct effect M 240
its old narrow pathway M 240
its own import duties M 234
its own special claims M 232
its way through forest M 231
its own symbol system M 230
its own special causes M 228
its own teacher training M 227
its own unique object M 226
its long wooden handle M 226
its own weight forces M 225
its own freely chosen M 224
its own demise through M 224
its own starting points M 222
its own agenda without M 220
its way through amongst M 217
its own weight should M 212
its own shares through M 212
its own figure turned M 212
its own building blocks M 212
its new member states M 211
its own unique symbol M 210
its own secret agents M 208
its own effect without M 208
its own higher spirit M 206
its being forced through M 206
its own version number M 204
its own innate nature M 204
its own unique assets M 202
its own profit margin M 202
its own powers without M 202
its way through clouds M 200
its being already formed M 200
its own nature should M 198
its old mortal frames M 198
its own merits fairly M 196
its own labour market M 196
its own inward energy M 196
its way slowly upward M 194
its own special spirit M 194
its own special issues M 194
its way toward another M 192
its way through silent M 192
its use should become M 192
its own special memory M 192
its own sacred events M 192
its own nature belongs M 192
its own ethical system M 192
its own temple belongs M 190
its own sacred writings M 190
its own reasoning powers M 190
its head almost touching M 190
its own public domain M 188
its own special format M 186
its own shadow through M 186
its air supply through M 186
its way through meadows M 184
its own system without M 182
its own nature greater M 182
its own unique syntax M 180
its own proper measure M 180
its own nature before M 180
its own normal school M 178
its own nature vicious M 178
its way onward through M 176
its own stored energy M 176
its own future actions M 176
its own special scheme M 174
its own secret symbol M 174
its own powers before M 174
its own mental images M 174
its own closed circle M 174
its long voyage through M 174
its own little square M 173
its net carrying amount M 173
its own special number M 172
its own special impact M 172
its own reward system M 172
its own nature something M 172
its way through masses M 170
its own special building M 170
its own modern building M 170
its two united states M 168
its own unique reality M 168
its own unique domain M 168
its own nature unjust M 168
its own merits solely M 168
its own energy through M 168
its own weight caused M 166
its own weight behind M 166
its own special source M 164
its own proper manner M 164
its own little battle M 164
its own active energy M 164
its use before public M 162
its own wishes without M 162
its own special circle M 162
its long winter nights M 162
its own output signal M 160
its own family circle M 160
its own unique impact M 158
its own training course M 158
its own strict limits M 158
its own special course M 158
its own special aspect M 158
its own release through M 158
its own proper motions M 156
its way heavily through M 154
its own training scheme M 154
its own special colors M 154
its net liquid assets M 154
its own training system M 152
its own proper centre M 152
its own agenda through M 152
its net profit before M 152
its own limits through M 150
its own common market M 150
its own building across M 148
its far eastern forces M 148
its way gently through M 146
its own version called M 146
its own values through M 146
its own special reward M 146
its own nature divine M 146
its own innate virtue M 146
its own founding fathers M 146
its way through existing M 144
its own proper system M 144
its own proper degree M 144
its own actions through M 144
its way through twenty M 142
its way freely through M 142
its way boldly through M 142
its own unique merits M 142
its own object through M 142
its own demand through M 142
its own memory system M 140
its own little scheme M 140
its own causal powers M 140
its way through broken M 139
its own nature little M 139
its own simple nature M 138
its own latent powers M 138
its own ethical values M 138
its own direct agency M 138
its being almost wholly M 138
its own little system M 136
its own access rights M 136
its own special lights M 134
its own nature useful M 134
its own ground without M 134
its own credit system M 134
its own family planning M 133
its own formal nature M 132
its own direct labour M 132
its own client states M 132
its now famous report M 132
its law should govern M 132
its way inside through M 130
its own unique visual M 130
its own forces without M 130
its own behalf without M 130
its low profit margin M 130
its two founding peoples M 128
its own weight wearies M 128
its own unique origin M 128
its own special energy M 128
its own special agents M 128
its own slight strength M 128
its own nature admits M 128
its own little school M 128
its own limits without M 128
its own earlier stages M 128
its being passed without M 128
its own upward ascent M 126
its own unique market M 126
its own special market M 126
its own proper source M 126
its own proper acorns M 126
its own nature absurd M 126
its old course through M 126
its way toward something M 124
its way deeply through M 124
its own special strength M 124
its own labour supply M 124
its new course through M 124
its aging course teaches M 124
its way toward greater M 122
its own unique sounds M 122
its own unique powers M 122
its own system called M 122
its own proper energy M 122
its long course across M 122
its being pushed through M 122
its own weight across M 120
its own pretty garden M 120
its own nature toward M 120
its own innate energy M 120
its own actual reality M 120
its old fighting spirit M 120
its own yellow colour M 118
its own unique family M 118
its own unique demand M 118
its own famous school M 118
its own deeply rooted M 118
its long wooden tables M 118
its war effort through M 116
its use should result M 116
its own special events M 116
its own powers through M 116
its own duties without M 116
its own behalf through M 116
its own animal nature M 116
its new school building M 115
its way around through M 114
its own proper mission M 114
its one narrow window M 114
its being thought proper M 114
its own nature neither M 111
its way inward through M 110
its own unique wisdom M 110
its own special corner M 110
its own proper rights M 110
its own divine source M 110
its own choice without M 110
its own active nature M 110
its low impact strength M 110
its head pointing upward M 110
its use became almost M 108
its own simple strength M 108
its own merits instead M 108
its own little wooden M 108
its own street lighting M 107
its own special thought M 107
its way through mighty M 106
its way almost without M 106
its own system design M 106
its own special syntax M 106
its own memory buffer M 106
its own mature strength M 106
its own special handling M 105
its use without further M 104
its own values without M 104
its own unique memory M 104
its own special fields M 104
its own shares should M 104
its own safety through M 104
its own initial excess M 104
its own chosen course M 104
its way safely across M 102
its own weight toward M 102
its own unique reasons M 102
its own unique causes M 102
its own system through M 102
its own special lighting M 102
its own sacred animal M 102
its own nature engaged M 102
its own behalf before M 102
its air without becoming M 102
its own unique script M 100
its own unique genius M 100
its own unique ethical M 100
its own special lesson M 100
its own proper entity M 100
its own future strength M 100
its own domain without M 100
its own divine spirit M 100
its own course across M 100
its own bright colour M 100
its being called before M 100
its being almost always M 100
its way through modern M 99
its own unique signal M 99
its way without serious M 98
its use almost always M 98
its top pointing toward M 98
its real nature became M 98
its path through matter M 98
its own unique agenda M 98
its own shared memory M 98
its own rights without M 98
its own prices without M 98
its own nature beyond M 98
its own energy crisis M 98
its own clearly stated M 98
its ten member states M 96
its path toward becoming M 96
its own training manual M 96
its own proper states M 96
its own object without M 96
its own narrow domain M 96
its own middle eastern M 96
its own little market M 96
its own limits should M 96
its own gentle feelings M 96
its own agents abroad M 96
its net annual profit M 96
its path passes through M 94
its own merits through M 94
its own ethical issues M 94
its long common border M 94
its way through little M 92
its way through eastern M 92
its own unique source M 92
its own special degree M 92
its own special allure M 92
its own little family M 92
its own lawful claims M 92
its own energy system M 92
its own direct source M 92
its own deeper nature M 92
its new managing editor M 92
its way through reality M 90
its own training ground M 90
its own safety teaches M 90
its own proper reward M 90
its own ground through M 90
its one little window M 90
its one chance without M 90
its old ruined castle M 90
its eye glancing wildly M 90
its being broken through M 90
its own special school M 89
its way through stands M 88
its way through nature M 88
its two limiting values M 88
its own strength solely M 88
its own special sounds M 88
its own special secret M 88
its own special injury M 88
its own special habits M 88
its own special centre M 88
its own powers better M 88
its own nature unless M 88
its own nature proper M 88
its own little brains M 88
its own higher reality M 88
its own energy stores M 88
its own divine energy M 88
its one serious defect M 88
its way through minute M 86
its own unique strength M 86
its own unique pathway M 86
its own strength through M 86
its own special insect M 86
its own little forest M 86
its own direct impact M 86
its own circle around M 86
its long voyage around M 86
its head turned upward M 86
its being wrongly stated M 86
its way through opposing M 84
its way passes through M 84
its own safety record M 84
its own nature common M 84
its new aspect showed M 84
its way through heavily M 83
its way through before M 82
its own urgent claims M 82
its own training methods M 82
its own special weight M 82
its own special ethical M 82
its own obvious merits M 82
its own narrow little M 82
its own merits purely M 82
its own garden behind M 82
its own expert system M 82
its own annual meetings M 82
its own agents instead M 82
its way through something M 80
its way across fields M 80
its use without regard M 80
its own pathway through M 80
its own former person M 80
its own actions affect M 80
its end without further M 80
its own special public M 75
its head turned around M 71
its own clearly marked M 54
its own special signal M 44
its way around inside M 43
its net widely enough M 40
its own nuclear weapons D 8986
its own proper sphere D 5848
its own accord without D 2496
its real estate holdings D 1784
its tax exempt status D 1748
its own public opinion D 1592
its own retail stores D 1578
its far eastern policy D 1328
its own unique flavor D 1300
its own lagged values D 1296
its own special flavor D 1160
its own public policy D 1122
its own atomic weapons D 1080
its own office building D 1046
its own accord before D 929
its own nuclear forces D 926
its own special sphere D 888
its own accord through D 860
its own oxygen supply D 792
its own little island D 776
its own postal system D 758
its own policy toward D 724
its red lights flashing D 718
its own courts without D 694
its own fiscal policy D 674
its own unique fashion D 630
its real estate assets D 608
its own policy agenda D 602
its own parish church D 588
its own shopping center D 582
its own police forces D 555
its own shines through D 544
its own sphere without D 522
its new office building D 517
its own shopping centre D 514
its low atomic weight D 488
its own annual budget D 486
its net income before D 468
its own policy without D 466
its own tennis courts D 463
its low atomic number D 454
its own police station D 428
its own special skills D 426
its own avenger breeds D 425
its two flanking towers D 414
its own muscle tissue D 410
its own fiscal system D 408
its own atomic energy D 406
its own secret police D 398
its own walled garden D 396
its own nature sinful D 396
its own native strength D 390
its mad career through D 386
its own nuclear device D 374
its own printing office D 370
its own tariff system D 368
its own tariff policy D 354
its own accord unless D 354
its own special feature D 350
its own native powers D 346
its real estate market D 344
its own inmost nature D 338
its own accord toward D 338
its own unique traits D 326
its new policy toward D 324
its real estate values D 322
its own special status D 319
its own narrow sphere D 316
its own device driver D 312
its own little sphere D 310
its own native genius D 308
its own pocket seemed D 298
its own special section D 292
its net annual income D 284
its own stated policy D 280
its long standing policy D 280
its own native format D 278
its own fierce strength D 278
its own equity shares D 278
its own branch office D 268
its two square towers D 262
its own atomic number D 262
its own accord tended D 262
its own weight wearied D 258
its own proper bounds D 258
its own little quirks D 258
its own narrow bounds D 256
its head office abroad D 256
its own public sector D 250
its own strange charms D 248
its own retail outlet D 244
its own accord turned D 244
its old wooden houses D 244
its own target market D 241
its own parish priest D 234
its own carbon dioxide D 234
its own pension scheme D 232
its own special jargon D 230
its own public sphere D 228
its own special charms D 222
its own special traits D 216
its own nuclear reactor D 216
its own native energy D 216
its own sphere through D 214
its own atomic weight D 214
its own accord become D 210
its two nearest rivals D 206
its two larger rivals D 206
its own special dishes D 200
its own future income D 200
its own energy policy D 200
its tip pointing toward D 198
its way through rugged D 194
its own ground troops D 192
its own combat troops D 190
its own special office D 188
its own bodily organs D 188
its own accord occupy D 188
its own special flower D 186
its own patent system D 186
its own fiscal crisis D 186
its own pension system D 184
its own native rulers D 184
its long silken lashes D 184
its being firmly rooted D 184
its own special police D 180
its own native purity D 178
its own budget without D 176
its new panels reecho D 176
its way without stopping D 174
its way through gorges D 172
its own parade ground D 172
its own bridge across D 172
its own stigma without D 170
its own status system D 170
its own special fashion D 170
its own opinion leaders D 170
its own accord prompt D 170
its old gabled houses D 170
its own special portion D 168
its way gingerly through D 166
its rear wheels spinning D 166
its way through groves D 162
its use varies widely D 162
its own future status D 162
its own august weight D 162
its far eastern empire D 162
its near eastern policy D 160
its own police system D 156
its own future policy D 156
its own accord across D 156
its real income through D 154
its own little section D 154
its low starting torque D 154
its head office building D 154
its red lights blinking D 152
its own sacred places D 150
its own nuclear energy D 150
its way through swamps D 148
its own unique feature D 148
its own special recipe D 148
its own salary scales D 147
its own thermal energy D 146
its own special usages D 146
its own special ritual D 146
its own ground station D 146
its weak treble broken D 144
its way partly through D 144
its way through wooded D 143
its way uphill through D 142
its way through openings D 142
its own septic system D 142
its own office bearers D 142
its too potent vassal D 140
its real estate section D 140
its own special organs D 140
its own flower garden D 140
its aid policy toward D 140
its way through chinks D 138
its own unique status D 138
its own shipping office D 138
its own nuclear striking D 138
its own nuclear strike D 138
its own little shrine D 138
its own fierce energy D 138
its own diesel engines D 138
its own unique settings D 136
its own shopping arcade D 136
its own secret recipe D 136
its way through tangled D 134
its own little ravine D 134
its own feudal system D 134
its own atomic device D 134
its aim poised justly D 134
its two patron saints D 133
its way lazily through D 132
its own unique spatial D 132
its own puppet regime D 132
its own credit policy D 132
its own accord whether D 132
its own speedy limits D 128
its own sewage system D 128
its own little empire D 128
its own budget office D 128
its own indoor swimming D 127
its own special libido D 126
its own little pocket D 126
its own little chapel D 126
its own subway station D 124
its own special budget D 124
its net income should D 124
its way inland through D 123
its own motive forces D 123
its red velvet cushion D 122
its own united nations D 122
its own patent office D 122
its own income through D 122
its own labour policy D 120
its own indexing system D 120
its far eastern regions D 120
its long summer recess D 119
its own patron saints D 118
its own chosen sphere D 118
its own accord should D 118
its own sports ground D 117
its own chosen leaders D 116
its way through virgin D 114
its tip almost touching D 114
its own unique timbre D 114
its own policy choice D 114
its own liaison office D 114
its own church versus D 114
its way through joints D 112
its peak effect occurs D 112
its own modest sphere D 112
its own golden person D 112
its own floating window D 112
its old danish rights D 112
its tip pointing upward D 110
its own vacuum system D 110
its own special series D 110
its own rocket engines D 110
its own native policy D 110
its own accord anyway D 110
its two million square D 108
its own retail prices D 108
its own career ladder D 108
its own unique sphere D 106
its own unique atomic D 106
its own proper regions D 106
its own unique series D 104
its own proper notions D 104
its own inbred wishes D 104
its way through floating D 103
its own accord return D 103
its way deftly through D 100
its use varies greatly D 100
its own proper office D 100
its own native forces D 100
its own native charms D 100
its new jersey office D 100
its low income levels D 100
its own unique twists D 98
its own subway system D 98
its own special dialect D 98
its own proper tinsel D 98
its own lovely sphere D 98
its own higher sphere D 98
its own fashion without D 98
its own export prices D 98
its long flight across D 98
its being bitten through D 98
its way seaward through D 96
its own special nuance D 96
its own ripple effect D 96
its own nuclear policy D 96
its own little museum D 96
its own little colony D 96
its own export market D 96
its own courts except D 96
its old stamping ground D 96
its neat little wicket D 95
its own special terror D 94
its own special patron D 94
its own patent rights D 94
its own inward notions D 94
its own global policy D 94
its neat little garden D 94
its own unique styles D 92
its own unique skills D 92
its own police powers D 92
its own native haunts D 92
its own special enzyme D 90
its own policy options D 90
its own policy actions D 90
its own little bridge D 90
its own fashion through D 90
its old parish church D 90
its new subway system D 90
its long wooden bridge D 90
its red coloring matter D 88
its real estate agents D 88
its own unique dialect D 88
its own safety valves D 88
its own nuclear plants D 88
its own native pastor D 88
its own little groove D 88
its being called petite D 88
its own proper claret D 87
its six member nations D 86
its real estate prices D 86
its own ticket office D 86
its own stance toward D 86
its own special recess D 86
its own proper portion D 86
its own policy through D 86
its old bugbear chorus D 86
its far eastern allies D 86
its own native clergy D 85
its own tariff levels D 84
its own special tastes D 84
its own special places D 84
its own lobbying effort D 84
its own accord around D 84
its neat little church D 84
its own without courting D 82
its own tariff duties D 82
its own special policy D 82
its own nuclear strength D 82
its own native peoples D 82
its own dipole moment D 82
its new target market D 82
its long convex border D 82
its own unique rhythms D 80
its own special quirks D 80
its own special brands D 80
its own proper fashion D 80
its own native talent D 80
its own weight vector D 53
its own native ground D 52
