its public school system M 6588
its initial public offering M 6516
its latest annual report M 3027
its second annual report M 2385
its annual joyous return M 2028
its member states through M 958
its member states should M 868
its bright yellow colour M 710
its entire course through M 620
its entire course without M 582
its seventh annual report M 482
its course passes through M 448
its normal course through M 428
its annual course around M 412
its united states parent M 392
its maiden voyage across M 390
its merits without regard M 362
its random access memory M 356
its devious course through M 328
its onward course through M 312
its various stages through M 298
its purely formal aspect M 298
its memory should depend M 290
its upward course through M 268
its likely future course M 262
its entire eastern border M 260
its shadow beyond myself M 256
its output signal traced M 252
its course without further M 244
its twelfth annual report M 236
its ground combat forces M 220
its common school system M 218
its initial planning stages M 216
its normal course without M 212
its entire weight behind M 212
its carrying amount should M 212
its further course through M 206
its entire school system M 202
its issues seldom answer M 200
its course almost without M 198
its various stages without M 194
its fellow member states M 193
its shares without thereby M 190
its object public strength M 188
its meetings behind closed M 186
its annual report issued M 182
its nature drives beyond M 178
its former client states M 172
its earlier course through M 170
its course without regard M 170
its annual report covering M 170
its agents should reside M 162
its proper colour evenly M 160
its future looked bright M 160
its various member states M 159
its course passed through M 159
its annual report stated M 158
its effect mainly through M 154
its twelve member states M 152
its unique design creates M 146
its united states branch M 144
its active labour market M 144
its pretty little church M 142
its effect spreads through M 142
its earlier stages without M 142
its active nature before M 142
its initial stages through M 138
its former owners without M 138
its former narrow limits M 138
its divine origin proved M 136
its annual report whether M 136
its pointing beyond itself M 133
its habits demand strength M 132
its gloomy shadow across M 128
its object exists before M 126
its earlier stages before M 126
its various stages before M 124
its united states source M 124
its entire output through M 124
its divine source through M 124
its initial stages before M 122
its boughs reaches always M 122
its actions showed itself M 122
its stages without debate M 120
its nature evokes earnest M 120
its purely formal nature M 116
its latest editor boldly M 116
its future seemed bright M 116
its narrow circle gathers M 114
its future course should M 114
its eleven stages without M 114
its various phases through M 112
its mighty course almost M 112
its monthly course around M 110
its middle course through M 110
its famous public school M 108
its various copies differ M 106
its normal course toward M 106
its lonely course without M 106
its united strength should M 104
its limits without becoming M 104
its effect solely through M 104
its burden merely through M 104
its rulers thought proper M 102
its number should repair M 102
its thought through whilst M 98
its pupils without charge M 98
its former course through M 98
its united states market M 97
its victim without wavering M 96
its future seemed secure M 95
its further course toward M 94
its female yields little M 94
its chance appears indeed M 94
its volume become greater M 93
its divine origin onward M 93
its public agents should M 92
its member states without M 92
its member states agreed M 92
its maiden voyage through M 92
its future meetings should M 92
its dangers should attach M 92
its stored energy through M 90
its stages without further M 90
its online public access M 90
its course turned toward M 90
its proper course through M 88
its onward course toward M 88
its nature revealing itself M 88
its annual summer school M 88
its proper object thought M 86
its annual course through M 86
its actual energy greater M 86
its stores without labour M 84
its second phrase appearing M 84
its merits become better M 84
its course without serious M 84
its agents without regard M 84
its mission without further M 82
its course through various M 82
its square figure without M 80
its likely future impact M 80
its entire public school M 80
its entire edition before M 80
its former member states M 41
its tendon passes through D 1614
its middle eastern policy D 934
its public domain status D 588
its second special session D 514
its second annual session D 472
its seventh special session D 466
its tendon passes behind D 451
its obvious chilling effect D 360
its atomic weight should D 346
its united states income D 330
its stated dollar amount D 329
its recent annual report D 298
its middle eastern allies D 278
its annual dollar volume D 266
its crafty expert agents D 264
its eddies played around D 261
its public pension system D 254
its golden border shoots D 254
its floral carvings choked D 252
its nuclear weapons policy D 248
its various grades should D 242
its hazard lights flashing D 234
its higher atomic number D 224
its thrones without shadow D 210
its future policy toward D 200
its quaint little church D 198
its amount varies greatly D 196
its banana import regime D 194
its vassal border states D 186
its spreading farther through D 182
its zigzag course through D 178
its radius vector sweeps D 178
its secret nuclear weapons D 172
its cloudy foliage lowers D 171
its second cousin taught D 170
its entire annual budget D 170
its career without allowing D 168
its policy toward securing D 167
its higher atomic weight D 166
its golden courts opened D 166
its united nations allies D 164
its excess carbon dioxide D 164
its carbon dioxide tension D 162
its family planning policy D 160
its public policy agenda D 156
its little globes extent D 149
its mobile public opinion D 146
its meshes become larger D 144
its career through various D 140
its muzzle pointing toward D 138
its labour market policy D 138
its annual awards dinner D 138
its public school houses D 136
its export sector become D 136
its export market shares D 134
its famous coffee houses D 133
its turbid waters through D 132
its nuclear energy policy D 132
its entire policy toward D 132
its hazard lights blinking D 131
its policy toward eastern D 130
its course before entering D 130
its headlong course across D 128
its nature better suited D 126
its seventh annual session D 124
its second person singular D 124
its bright yellow flower D 124
its nuclear export policy D 120
its stored thunder laboring D 118
its closer regions without D 116
its wooden bridge across D 114
its inviting little tables D 114
its covert nuclear weapons D 114
its nuclear weapons without D 112
its glossy annual report D 112
its thickly wooded slopes D 111
its wooded shores dotted D 110
its little wooden houses D 110
its fruits without labour D 108
its sacred laurel crowns D 106
its meshes little masses D 106
its nuclear weapons status D 105
its waters speeding through D 104
its proper sphere without D 104
its little walled garden D 104
its little flower garden D 104
its dorsal carpal branch D 104
its blasting rebuke causes D 104
its tangled foliage through D 102
its serene trusting strength D 102
its nuclear weapons effort D 102
its middle meningeal branch D 102
its income before income D 102
its nimble coursing through D 100
its existing nuclear weapons D 100
its carbon dioxide through D 100
its golden nimbus around D 98
its former vassal states D 97
its public sector reform D 96
its benign aspect turned D 96
its united states office D 94
its normal oxygen supply D 94
its former forced levity D 94
its amount varies widely D 94
its dipole moment changes D 93
its waters flowed through D 92
its radius vector varies D 92
its larger sister island D 92
its entire annual income D 92
its weight firmly behind D 90
its vertex placed beyond D 90
its throbbing pulses gently D 90
its carbon dioxide output D 90
its atomic number changes D 90
its windings flowed through D 88
its golden yellow colour D 88
its crushing strength should D 88
its bloody eddies wheeling D 88
its sudden retreat through D 86
its nuclear weapons plants D 86
its brimming waters through D 86
its various fierce leaders D 84
its oxygen supply through D 84
its narrow islets united D 84
its member nations should D 84
its golden fleece hovering D 84
its strange feudal towers D 82
its greater atomic weight D 82
its bright yellow petals D 82
its simple tapering joints D 80
its second annual review D 54
its retreat without further D 44
