its most sacred rights M 4726
its full weight behind M 2934
its most famous member M 2045
its last annual report M 1815
its most serious crisis M 1672
its most active member M 1491
its third annual report M 1389
its very nature always M 1112
its face turned toward M 1076
its most obvious effect M 1058
its early stages before M 980
its most serious defect M 977
its having passed through M 954
its next annual report M 924
its very nature should M 912
its most common causes M 912
its most marked effect M 888
its very nature something M 874
its most minute detail M 854
its most serious aspect M 800
its most obvious aspect M 782
its fifth annual report M 705
its most severe crisis M 682
its most enduring legacy M 657
its very nature creates M 654
its most likely source M 604
its most direct impact M 602
its most serious effect M 588
its most sacred duties M 582
its most famous victim M 578
its very nature defies M 574
its edge passes through M 574
its very nature beyond M 568
its main energy source M 558
its full effect without M 512
its dark shadow across M 508
its very nature belongs M 500
its back turned toward M 496
its most highly valued M 494
its sixth annual report M 480
its full effect unless M 476
its very nature stands M 452
its tenth annual report M 448
its most potent topics M 442
its most liquid assets M 436
its very nature highly M 400
its most direct effect M 400
its most obvious result M 396
its full course before M 392
its most potent symbol M 388
its early planning stages M 384
its early stages through M 376
its more modern version M 372
its very nature appears M 350
its very nature offers M 348
its true nature through M 342
its full course without M 342
its very nature unable M 338
its free speech rights M 334
its eyes turned toward M 330
its most imposing aspect M 326
its main object should M 324
its early stages should M 324
its more serious aspect M 322
its more famous sister M 321
its very nature causes M 317
its most active agents M 316
its full effect before M 312
its very nature admits M 310
its most common source M 306
its true nature should M 302
its most famous building M 302
its most common version M 300
its most common effect M 298
its early stages without M 284
its most serious crises M 282
its most marked degree M 280
its very nature remain M 278
its most severe impact M 276
its very initial stages M 274
its ninth annual report M 274
its most serious impact M 274
its very nature public M 260
its most remote source M 260
its full strength without M 260
its very nature allows M 258
its very nature exists M 252
its very nature almost M 248
its most severe critic M 248
its true nature without M 246
its full fighting strength M 244
its slow course through M 242
its most active periods M 242
its most crucial aspect M 236
its very nature remote M 228
its most modern aspect M 228
its single window looked M 226
its high school pupils M 223
its very nature doomed M 220
its more mature stages M 220
its only female member M 219
its very nature denies M 218
its most damaging effect M 218
its most crucial points M 218
its most obvious source M 216
its most obvious defect M 214
its very public nature M 208
its most potent effect M 204
its high impact strength M 204
its most famous writer M 202
its most deeply rooted M 202
its most crucial moment M 202
its very nature become M 196
its most famous version M 196
its most secret workings M 194
its most famous figure M 193
its most tragic aspect M 192
its full strength before M 192
its very nature changes M 190
its most obvious impact M 190
its most famous teacher M 190
its very nature limits M 187
its most famous modern M 187
its very nature appeals M 186
its poor safety record M 186
its most sacred feelings M 186
its most active phases M 186
its more formal aspect M 186
its four corner points M 186
its very nature unique M 184
its leading member states M 184
its very nature without M 182
its most famous editor M 182
its great object should M 182
its most gifted member M 180
its most common modern M 180
its very nature raises M 178
its body weight without M 176
its very nature called M 174
its moving shadow always M 174
its most formal aspect M 174
its full strength should M 174
its most severe effect M 170
its most serious damage M 170
its more active phases M 170
its early stages passed M 170
its best lights whether M 170
its very nature points M 169
its very nature eludes M 168
its most crucial stages M 168
its very nature active M 166
its tail pointing toward M 166
its very nature finite M 165
its very nature forces M 164
its most simple version M 164
its most sacred values M 162
its more active duties M 162
its eyes turned upward M 162
its very nature likely M 160
its true nature became M 160
its most secret powers M 160
its more obvious aspect M 160
its very nature secret M 158
its most severe crises M 158
its more serious impact M 158
its last feeble effort M 158
its dark purple colour M 158
its very nature changed M 156
its most valued assets M 156
its most famous former M 156
its most secret thought M 154
its most likely course M 154
its work behind closed M 152
its much larger number M 152
its most simple aspect M 152
its more violent phases M 152
its most appealing aspect M 150
its main building blocks M 150
its life crawling around M 150
its work through standing M 148
its most likely future M 148
its arms folded across M 148
its true answer clearly M 146
its only energy source M 146
its most likely origin M 146
its last expiring effort M 146
its very nature sacred M 144
its more direct effect M 144
its very narrow limits M 142
its much greater strength M 142
its most serious dangers M 142
its work without further M 140
its work mainly through M 140
its most violent aspect M 140
its main effort toward M 140
its clear waters through M 140
its dark shadow before M 139
its very nature wavering M 138
its full effect through M 138
its angry course through M 138
its early stages appears M 136
its only proper object M 134
its length without dismay M 134
its high profit margin M 134
its very nature neither M 133
its open source nature M 132
its most useful aspect M 132
its most famous authors M 132
its free school system M 132
its very special nature M 130
its very nature toward M 130
its most alluring aspect M 130
its more serious phases M 130
its deep signal through M 130
its very nature seemed M 128
its very nature merely M 128
its very faults pleased M 128
its most crucial periods M 128
its more common causes M 128
its main points should M 128
its high seventh circle M 128
its dark waters closed M 128
its very nature breeds M 127
its true divine nature M 126
its full strength behind M 126
its very nature unjust M 125
its true nature behind M 124
its more remote origin M 124
its most remote reaches M 123
its most touching aspect M 122
its most enduring impact M 122
its most active worker M 122
its free public school M 122
its food supply through M 122
its true nature appears M 120
its most serious effort M 120
its most proper object M 120
its most highly placed M 120
its most active stages M 120
its more obvious phases M 120
its most fearful shapes M 118
its more public aspect M 118
its full course through M 118
its most modern version M 116
its most famous cities M 116
its good safety record M 116
its very nature already M 114
its most potent source M 114
its wake untold misery M 112
its face turned upward M 112
its body weight before M 112
its vast public domain M 110
its most famous rulers M 110
its more obvious abuses M 110
its full nature points M 110
its fine yellow colour M 110
its fair chance before M 110
its base turned upward M 110
its vast course across M 108
its having already reached M 108
its good credit standing M 108
its deep yellow colour M 108
its nine member states M 107
its very nature absurd M 106
its more direct impact M 106
its main course through M 106
its full weight without M 106
its work without regard M 104
its very utmost limits M 104
its true nature unless M 104
its true initial causes M 104
its size without altering M 104
its root system intact M 104
its most serious injury M 104
its most remote corner M 104
its most obvious workings M 104
its most famous street M 104
its most alarming aspect M 104
its very nature demand M 103
its tail around itself M 102
its other member states M 102
its only church became M 102
its most serious result M 102
its most obvious faults M 102
its most likely effect M 102
its more urgent duties M 102
its more modern aspect M 102
its more famous brother M 102
its great mission unless M 102
its very nature became M 100
its much greater weight M 100
its most potent forces M 100
its most famous pupils M 100
its most enduring effect M 100
its great weight caused M 100
its most imposing building M 99
its true colors before M 98
its south eastern corner M 98
its much larger volume M 98
its move toward greater M 98
its most sacred symbol M 98
its most sacred domain M 98
its most famous symbol M 98
its most famous phrase M 98
its high school system M 98
its having always fallen M 98
its form without appearing M 98
its work remain undone M 96
its very nature through M 96
its trial before judges M 96
its most famous critic M 96
its most deeply hidden M 96
its most common aspect M 96
its more remote causes M 96
its very nature placed M 94
its turn passed through M 94
its three member states M 94
its once humble friend M 94
its most tragic events M 94
its most severe stages M 94
its most sacred mission M 94
its most famous battle M 94
its more severe stages M 94
its arms locked around M 94
its open market powers M 92
its much greater number M 92
its much darker colour M 92
its most severe degree M 92
its most serious faults M 92
its most famous tenant M 92
its most famous guests M 92
its most crucial phases M 92
its main points before M 92
its very nature devoid M 90
its much higher energy M 90
its most sacred aspect M 90
its most common origin M 90
its last stages before M 90
its last combat mission M 90
its very nature relies M 88
its very nature created M 88
its very nature common M 88
its most unique aspect M 88
its more obvious causes M 88
its meaning through various M 88
its half should elapse M 88
its free course through M 88
its work through various M 86
its very nature serves M 86
its very nature heavily M 86
its very legend proved M 86
its rich yellow colour M 86
its much greater degree M 86
its move toward becoming M 86
its most enduring symbol M 86
its most active centre M 86
its meaning should become M 86
its feet without severe M 86
its eyes barely opened M 86
its early stages seemed M 86
its very nature passes M 84
its most violent stages M 84
its most sacred tenets M 84
its most inward feelings M 84
its most common import M 84
its home market without M 84
its full reality without M 84
its edge turned toward M 84
its will without regard M 82
its very nature occurs M 82
its turn passes through M 82
its true nature clearly M 82
its true course became M 82
its most violent phases M 82
its most severe losses M 82
its most obvious duties M 82
its most obvious causes M 82
its most famous master M 82
its most common course M 82
its kind stands almost M 82
its great public school M 82
its very nature reaches M 80
its truth without further M 80
its true nature hidden M 80
its tail turned toward M 80
its only actual effect M 80
its more serious nature M 80
its full powers without M 80
its free market system M 80
its face seemed broken M 80
its body unless through M 80
its base turned toward M 80
its eyes almost closed M 53
its early design stages M 47
its very nature claims M 43
its very nature drives M 42
its rule doubly secure M 40
its most striking feature D 15742
its most recent fiscal D 6256
its most recent annual D 4273
its most recent report D 2278
its most obvious feature D 1660
its most recent version D 1614
its most striking aspect D 1192
its most recent edition D 1030
its most recent editor D 1014
its most active leaders D 944
its sixth special session D 908
its most marked feature D 900
its high atomic number D 840
its next annual session D 836
its most unique feature D 784
its most striking effect D 766
its most famous feature D 758
its most famous native D 610
its size varies greatly D 600
its full extent without D 594
its full extent before D 549
its most secret places D 546
its sole carbon source D 524
its book review section D 520
its most recent survey D 516
its tenth special session D 507
its open market policy D 506
its axis passes through D 486
its most potent weapons D 480
its more famous cousin D 464
its third person singular D 456
its most useful feature D 454
its apex pointing toward D 452
its four corner towers D 448
its dual school system D 434
its most curious feature D 424
its most appealing feature D 424
its high atomic weight D 412
its most striking points D 398
its blue lights flashing D 396
its full height before D 390
its most hideous aspect D 388
its more recent version D 378
its more subtle windings D 376
its main export market D 374
its land tenure system D 374
its more florid charms D 370
its most recent phases D 344
its most highly prized D 338
its very nature tended D 336
its nose almost touching D 334
its tail curled around D 327
its third annual session D 320
its most stirring scenes D 314
its most imposing feature D 310
its most recent update D 308
its last session passed D 302
its most recent session D 300
its more recent origin D 298
its last session before D 298
its high points nodded D 294
its most singular feature D 292
its main shopping street D 282
its mouth beyond measure D 272
its unit normal vector D 270
its land reform policy D 270
its more recent aspect D 266
its most remote regions D 262
its next session should D 260
its last annual session D 258
its high starting torque D 257
its apex pointing upward D 256
its most famous leaders D 250
its more recent phases D 250
its home office building D 250
its dank yellow drifts D 250
its tall ledges oppose D 244
its third special session D 234
its prow points toward D 232
its most recent effort D 232
its most famous inmate D 232
its width varies greatly D 228
its most striking result D 228
its most distal portion D 226
its most recent twelve D 225
its very nature places D 224
its more common cousin D 218
its sole energy source D 216
its most striking scenes D 214
its most recent return D 214
its gram atomic weight D 214
its mouth without measure D 212
its most striking traits D 212
its next session passed D 210
its form varies greatly D 210
its most famous section D 204
its most hideous shapes D 202
its most recent aspect D 200
its most recent common D 198
its high dipole moment D 196
its high tariff policy D 194
its three million square D 192
its most recent policy D 190
its most ethereal charms D 186
its most recent review D 180
its most famous alumni D 178
its very thought thrills D 172
its pale yellow colour D 172
its more recent variant D 172
its most sacred shrine D 170
its most recent variant D 168
its soft tissue covering D 167
its most charming aspect D 166
its length without stopping D 166
its most pressing issues D 162
its most charming feature D 162
its more lavish smiles D 162
its axis pointing toward D 162
its most solemn moment D 158
its most solemn aspect D 156
its meaning varies widely D 156
its true atomic weight D 154
its four square towers D 154
its main office building D 152
its most recent stages D 148
its most dismal height D 148
its fifth annual session D 146
its more recent policy D 144
its most common feature D 142
its only serious rivals D 140
its most caudal portion D 140
its nose pointing toward D 138
its ninth annual session D 138
its most active portion D 136
its many church spires D 136
its sixth annual session D 134
its more remote regions D 134
its high octane number D 134
its more recent stages D 132
its more golden regions D 132
its single drooping figure D 130
its most sacred places D 130
its great sweeping boughs D 130
its full extent through D 130
its axis always points D 128
its high school seniors D 127
its very recent origin D 124
its very nature static D 124
its most striking impact D 124
its full height without D 124
its eggs without flight D 124
its wild career through D 122
its very nature reveals D 122
its most striking proofs D 122
its brim appearing beyond D 122
its tail coiled around D 121
its most crucial feature D 120
its very nature refers D 118
its most striking visual D 118
its most exciting moment D 118
its nine retail stores D 116
its most alluring feature D 116
its more distal portion D 116
its axis always pointing D 116
its only outlet through D 114
its most sordid aspect D 114
its most gifted leaders D 114
its vast brooding shadow D 112
its most recent release D 112
its high carbon dioxide D 112
its great height seemed D 112
its early stages cancer D 112
its most famous scenes D 110
its full extent became D 110
its most obvious target D 108
its most futile climax D 108
its most famous export D 108
its mere animal nature D 108
its huge barrel canted D 108
its great funnel emitting D 108
its very nature suited D 106
its pore spaces filled D 106
its mouth passes through D 106
its loss through disuse D 106
its least alarming feature D 106
its full extent behind D 106
its nose pointing upward D 104
its much larger cousin D 104
its most stirring events D 104
its most serious feature D 104
its most recent victim D 104
its most recent trough D 104
its most recent findings D 104
its most famous sights D 104
its most famous artist D 104
its most common variant D 104
its length varies greatly D 104
its four bronze horses D 104
its clear placid waters D 104
its fifth annual review D 103
its wild whirling eddies D 102
its three eastern tribes D 102
its once mighty empire D 102
its mouth awhile before D 102
its most recent public D 102
its most recent budget D 102
its most common exciting D 102
its most benign aspect D 102
its tenth annual session D 100
its sick driver hidden D 100
its iron wedges through D 100
its full spatial reality D 100
its dark glossy foliage D 100
its most recent census D 98
its more famous rivals D 98
its jingling sounds through D 98
its feet always firmly D 98
its most famous patron D 96
its most secret haunts D 95
its most exciting feature D 94
its fair market rental D 94
its arms export policy D 94
its most defining feature D 93
its wits before uttering D 92
its most puzzling feature D 92
its more robust brother D 92
its limp flapping bonnet D 92
its most recent opinion D 90
its most pressing duties D 90
its most famous slogan D 90
its most amiable aspect D 90
its bare wooden floors D 90
its tone adapting itself D 88
its most recent monthly D 88
its most recent actions D 88
its most prized assets D 88
its most cheering aspect D 88
its book review editor D 88
its post office closed D 86
its most modern weapons D 86
its most inviting aspect D 86
its most famous theorems D 86
its most exciting periods D 86
its huge square cliffs D 86
its vast forest holdings D 84
its rays passed through D 84
its most trivial detail D 84
its most serious menace D 84
its most recent changes D 84
its most famous recent D 84
its more modern variant D 84
its most gifted orator D 83
its three square towers D 82
its stead another severe D 82
its prey before pouncing D 82
its myths invert reality D 82
its most pressing dangers D 82
its most bitter critic D 82
its most ardent leaders D 82
its last station before D 82
its fine parish church D 82
its axis points toward D 82
its sole record strange D 80
its much greater extent D 80
its most enduring feature D 80
its more striking points D 80
its more recent cousin D 80
its dull flavor through D 80
its more stable isomer D 47
its legs trailing behind D 45
