its lowest energy state M 4188
its second annual meeting M 2005
its actual market value M 1954
its member states which M 1664
its member states shall M 1412
its bright yellow color M 910
its global market share M 900
its initial starting point M 734
its annual report under M 644
its annual course round M 636
its global supply chain M 536
its course through space M 518
its center through which M 512
its entire supply chain M 489
its centre through which M 446
its initial offering price M 438
its annual report which M 436
its seventh annual meeting M 433
its future energy needs M 404
its various stages until M 386
its object something which M 380
its annual report within M 336
its forces without delay M 322
its member states under M 308
its member credit unions M 306
its existing market share M 288
its actual market price M 278
its member states could M 262
its normal ground state M 261
its various modern forms M 260
its mission through space M 254
its limits beyond which M 254
its actual market share M 252
its normal course after M 250
its energy creates action M 240
its annual report about M 234
its former market share M 228
its voyage through space M 226
its entire course within M 212
its normal course again M 210
its course without delay M 210
its twelfth annual meeting M 208
its normal course until M 208
its existing labour force M 206
its bottom through which M 200
its weight neither loses M 196
its normal energy state M 196
its second stable state M 195
its normal market value M 194
its member states within M 192
its ground energy state M 188
its entire labour force M 188
its course stands still M 186
its initial report within M 180
its course without causing M 178
its travel through space M 173
its lowest figure since M 172
its little wooden cross M 166
its merits become known M 162
its annual proper motion M 162
its stable ground state M 157
its course before reaching M 154
its summit appearing above M 150
its female labour force M 142
its upward course until M 140
its initial planning stage M 140
its emerging middle class M 140
its normal liquid state M 138
its initial stable state M 138
its weight should carry M 136
its simple common sense M 136
its higher energy state M 136
its special powers under M 132
its bright yellow walls M 130
its proper starting point M 126
its bright yellow cover M 126
its maiden voyage after M 124
its quoted market price M 122
its initial supply price M 122
its course without human M 120
its course through every M 120
its richly stored pages M 118
its powers without waste M 118
its divine origin which M 118
its annual winter meeting M 118
its annual report dated M 118
its various special forms M 116
its nature something which M 116
its initial strength after M 116
its future market share M 116
its annual return shall M 116
its annual summer meeting M 115
its proper dwelling place M 114
its initial stages until M 112
its maiden voyage under M 110
its annual public meeting M 110
its normal yellow color M 108
its normal stable state M 106
its initial market share M 106
its former liquid state M 106
its earlier stages seems M 106
its bright yellow leaves M 105
its member states about M 104
its former colour again M 104
its existing market value M 104
its managing editor until M 102
its eastern margin rises M 102
its twenty square miles M 100
its covering letter dated M 100
its annual course about M 100
its entire second floor M 99
its various phases until M 98
its strict modern sense M 98
its proper course again M 98
its initial energy state M 98
its former dwelling place M 98
its second edition within M 96
its higher market value M 96
its course without either M 95
its raised middle piece M 94
its middle through which M 94
its images behind which M 94
its almost unceasing change M 94
its second moment about M 92
its proper formal sense M 92
its initial stages could M 92
its initial ground state M 92
its future course could M 92
its former normal state M 92
its various stages which M 90
its origin wholly within M 90
its future market value M 90
its course without undue M 90
its center around which M 90
its annual meetings since M 90
its actual starting point M 90
its little narrow round M 89
its member states since M 88
its exiled family never M 86
its eastern border which M 86
its course without halting M 86
its weight without feeling M 84
its various special cases M 84
its spirit without either M 84
its proper matter which M 84
its normal market price M 84
its merits became known M 84
its former volume after M 84
its divine origin could M 84
its normal strength until M 82
its higher stages shows M 82
its existing powers under M 82
its matter exists under M 80
its highly gifted author M 80
its annual summit meeting M 47
its excess energy either M 40
its policy toward china D 1246
its lowest energy level D 1163
its normal freezing point D 978
its member states would D 786
its recent annual meeting D 768
its policy toward japan D 726
its flight through space D 694
its lowest levels since D 654
its initial public stock D 630
its annual rental value D 522
its exempt status under D 454
its bright sanded floor D 448
its course without fever D 418
its annual report filed D 400
its normal energy level D 376
its atomic weight would D 362
its tendon passes under D 360
its future income stream D 358
its sterling common sense D 354
its nuclear weapons option D 326
its little murmur round D 312
its little native creek D 308
its mortal poison still D 298
its million square miles D 296
its annual export earnings D 294
its silver scales until D 288
its special status within D 286
its tendon passes beneath D 284
its direct fruits alone D 266
its normal cruising speed D 256
its united states naval D 251
its solemn pulses sending D 238
its public swimming pools D 236
its feature seemed rather D 234
its income before taxes D 230
its export market share D 214
its second energy level D 208
its special status under D 202
its nuclear strike force D 202
its devious windings about D 190
its public policy goals D 188
its hollow glassy threads D 184
its secret windings still D 178
its heyday before world D 174
its nuclear weapons would D 172
its narrow measure spans D 171
its actual height above D 170
its golden yellow color D 164
its nuclear striking power D 162
its nuclear weapons first D 151
its angular height above D 150
its income yielding power D 148
its policy planning staff D 146
its outset through every D 144
its tangent vector field D 142
its session without finding D 140
its policy toward women D 140
its pallid lilies brown D 138
its yellow grains gleaming D 136
its stated policy goals D 136
its nature highly penal D 136
its bright yellow paint D 136
its second session after D 134
its random thermal motion D 134
its nuclear weapons tests D 134
its divine origin would D 134
its bright yellow breast D 134
its nuclear weapons testing D 131
its special patron saint D 130
its lowest summer level D 130
its twelve million people D 128
its sturdy common sense D 128
its carved wooden doors D 128
its unique status within D 126
its labour demand curve D 126
its annual budget which D 126
its partial simple tones D 122
its middle portion flesh D 122
its initial stages would D 122
its flight toward heaven D 122
its various dosage forms D 120
its fellow alkali metal D 120
its acuter stages every D 120
its spending clause power D 118
its native savage state D 118
its former status within D 118
its volume without changing D 116
its various phases would D 116
its nuclear weapons until D 116
its initial energy level D 116
its annual dinner dance D 116
its initial margin level D 114
its earlier stages would D 114
its entire common stock D 112
its tender little beauty D 110
its golden lilies mingled D 108
its atomic number would D 108
its twenty million people D 106
its poison through every D 106
its grisly clouds warping D 106
its future policy would D 106
its deeply graven marks D 106
its widest extent under D 104
its simple tinkling sound D 104
its nuclear weapons while D 104
its nuclear striking force D 104
its likely effect would D 104
its higher energy level D 104
its united states debut D 102
its stealthy minute march D 102
its policy toward labor D 102
its marshy source every D 102
its limpid waters flowing D 102
its initial freezing point D 102
its former energy level D 102
its normal retail price D 100
its initial tender offer D 100
its actual effect would D 100
its unpaid hordes would D 98
its public policy shall D 96
its native haunts would D 96
its inlaid marble floor D 96
its golden breasts above D 96
its future course would D 96
its former status under D 96
its annual formal dance D 96
its public opinion polls D 95
its second session shall D 94
its little uneven cubes D 94
its eighty million people D 94
its avowed object would D 94
its famous silver mines D 92
its existing common stock D 92
its annual income would D 92
its fruits without labor D 90
its former status after D 90
its initial review under D 88
its former thronged state D 88
its entire police force D 87
its special police force D 86
its quaint little shops D 86
its outlet through bayou D 86
its member nations would D 86
its finely varied tones D 86
its bright golden color D 86
its annual session shall D 86
its summit seemed riven D 84
its square church tower D 84
its shrewd common sense D 84
its market demand curve D 84
its little tender frame D 84
its caudal nerves could D 84
its absurd notions about D 84
its thickly wooded banks D 82
its section number within D 82
its normal summer level D 82
its middle portion about D 82
its greater weight would D 82
its darker coloring under D 82
its bitter result comes D 82
its troops without delay D 80
its second session under D 80
its robust common sense D 80
its proper sphere would D 80
its nuclear weapons could D 80
its little square tower D 80
its future resale value D 80
its fighting strength would D 80
its famous bronze doors D 80
its extent reached fully D 80
its direct effect would D 80
its already existing stock D 80
