its member states have M 4808
its direct effect upon M 2402
its maiden voyage from M 1850
its member states will M 1796
its answer little meaning M 1494
its proper effect upon M 1310
its member states were M 1168
its entire useful life M 1134
its various stages from M 1076
its entire course from M 938
its strength mainly from M 908
its annual supply must M 824
its normal useful life M 722
its colour changes from M 714
its annual meetings were M 692
its changes through time M 687
its methods differ from M 614
its actual effect upon M 596
its united states range M 589
its higher initial cost M 560
its annual report made M 554
its further course will M 552
its return voyage from M 550
its member states must M 542
its ground forces from M 522
its narrow escape from M 516
its proper virtue will M 468
its direct impact upon M 468
its founding fathers were M 466
its volume changes from M 452
its origin solely from M 442
its future course will M 422
its bright little eyes M 422
its orders direct from M 412
its likely impact upon M 408
its likely effect upon M 404
its course through these M 400
its initial stages when M 386
its various phases from M 378
its gloomy shadow over M 370
its damaging effect upon M 368
its course through time M 362
its latest finish time M 358
its entire supply from M 352
its nature should have M 350
its energy supply from M 348
its agents relied upon M 346
its sudden changes from M 332
its proper powers only M 332
its course without much M 330
its existing client base M 317
its member states from M 310
its colour changed from M 306
its double weight must M 300
its course through many M 296
its annual meetings have M 294
its weekly meetings were M 292
its divine origin from M 280
its various phases will M 274
its deadening effect upon M 270
its strength arises from M 268
its actual impact upon M 266
its effect arises from M 264
its combat forces from M 264
its waters seemed much M 260
its course through some M 260
its actual useful life M 260
its origin further back M 252
its various stages were M 242
its bright course high M 242
its weakening effect upon M 234
its marked effect upon M 232
its energy mainly from M 232
its earlier stages there M 227
its initial stages were M 224
its member states into M 222
its course through life M 222
its proper weight must M 220
its profit margin from M 220
its utmost reaches there M 218
its initial strength from M 218
its earlier stages were M 214
its stored energy into M 212
its origin mainly from M 212
its normal breeding range M 212
its mighty shadow over M 210
its proper object here M 208
its earlier stages when M 208
its safety without much M 206
its waters without making M 204
its effect should have M 202
its special origin from M 200
its proper effect when M 200
its prices without losing M 200
its various stages have M 194
its annual meetings from M 194
its methods became more M 193
its future effect upon M 192
its eastern border from M 192
its various phases have M 190
its course without some M 190
its powers solely from M 188
its meetings became more M 188
its future looked bleak M 188
its course without giving M 188
its bright yellow eyes M 188
its jealous course among M 184
its proper effect only M 182
its energy solely from M 182
its strength solely from M 180
its object something other M 178
its larger sample size M 178
its eastern limits were M 178
its future course from M 174
its earlier stages will M 174
its course without pain M 174
its former standing among M 168
its forces cleared lake M 168
its earlier stages must M 168
its various changes from M 166
its parent window when M 166
its normal course into M 164
its earlier stages from M 162
its carrying amount will M 162
its sacred writings were M 160
its purple colour clear M 160
its normal course when M 160
its agents unless such M 160
its special effect upon M 158
its normal course from M 158
its entire weight into M 156
its eastern waters from M 156
its shares unless their M 154
its proper nature when M 154
its gorged system half M 154
its direct course from M 154
its course without having M 154
its riches freely mine M 152
its direct origin from M 152
its weight behind those M 150
its former volume when M 150
its profit margin will M 148
its managing editor from M 148
its broken summit grew M 148
its authors should have M 148
its various phases were M 146
its speaker should stop M 146
its proper strength must M 146
its labour supply from M 146
its annual output from M 146
its agents should have M 146
its shadow passed over M 145
its maiden voyage into M 142
its impact varied from M 142
its habits whilst young M 142
its strange effect upon M 140
its founding twenty years M 140
its entire course along M 140
its becoming something other M 140
its costly mental health M 138
its aspect became more M 138
its strength mostly from M 136
its sister cities were M 136
its proper object were M 136
its profit margin ratio M 136
its object differ from M 136
its effect through some M 136
its annual report upon M 136
its merits should have M 134
its initial impact upon M 134
its shadow across their M 132
its monthly meetings were M 132
its former owners were M 132
its former breeding range M 132
its various stages will M 130
its origin should have M 130
its gloomy waters from M 130
its almost entire lack M 130
its summit looked down M 129
its volume turned down M 128
its tragic effect upon M 128
its talent should have M 128
its rights without having M 128
its powers beyond those M 128
its latest starting time M 128
its initial stages from M 126
its choice already made M 126
its second decade when M 122
its figure arises from M 122
its course through other M 122
its annual output will M 122
its powers extend only M 120
its little bright eyes M 120
its bright waters into M 120
its unifying effect upon M 118
its obvious effect upon M 118
its greater initial cost M 118
its course through such M 118
its sudden passion there M 117
its vastly greater size M 116
its readers already hold M 116
its lowest energy when M 116
its entire weight upon M 116
its effect without ever M 116
its yellow glance will M 114
its upward course from M 114
its secret nature must M 114
its course without once M 114
its course through their M 114
its common shares from M 114
its purely formal side M 112
its output signal will M 112
its bright yellow body M 112
its united states army M 110
its strange virtue upon M 110
its powers should have M 110
its output changes from M 110
its future impact upon M 110
its earlier stages have M 110
its authors simply pick M 110
its writer should have M 108
its various states were M 108
its various bodies once M 108
its summit should reach M 108
its powers direct from M 108
its origin merely from M 108
its member states over M 108
its narrow bottom gets M 106
its member states also M 106
its colour without much M 106
its strength through pure M 104
its rulers should have M 104
its output should have M 104
its merits indeed seem M 104
its initial stages will M 104
its initial effect upon M 104
its entire profit from M 104
its elders behind their M 104
its course through rich M 104
its sudden release from M 102
its starting points from M 102
its shadow across your M 102
its choice mainly upon M 102
its building blocks were M 102
its annual report said M 102
its course without ever M 101
its ground forces were M 100
its ground forces into M 100
its fighting forces were M 100
its divine origin were M 100
its direct attack upon M 100
its colour varied from M 100
its annual profit plan M 100
its united states code M 98
its public release from M 98
its member states during M 98
its maiden voyage down M 98
its initial stages even M 98
its initial stages during M 98
its ground before these M 98
its formal powers were M 98
its yellow colour from M 96
its various phases into M 96
its various peoples were M 96
its twelve altars rich M 96
its supply direct from M 96
its sister cities from M 96
its public meetings were M 96
its proper reward from M 96
its powers except those M 96
its maiden voyage when M 96
its eastern limits reach M 96
its devious course from M 96
its devious course along M 96
its closed bodies from M 96
its assets turned over M 96
its powers extend over M 95
its direct object only M 95
its supply mainly from M 94
its strength varied from M 94
its normal effect upon M 94
its nature changes from M 94
its latent energy into M 94
its initial stages only M 94
its effect solely upon M 94
its annual meetings during M 94
its wicked little eyes M 92
its pupils mainly from M 92
its normal strength when M 92
its initial volume when M 92
its fields afford their M 92
its carrying amount must M 92
its initial stages there M 91
its various phases must M 90
its spirit twenty years M 90
its readers should have M 90
its powers beyond their M 90
its origin traced back M 90
its ground pretty well M 90
its favour without much M 90
its entire strength into M 90
its eastern branch into M 90
its bright lights were M 90
its almost twenty years M 90
its voyage through time M 88
its stages without giving M 88
its heroic actions there M 88
its future course must M 88
its fighting powers were M 88
its earlier stages been M 88
its square ground plan M 86
its silent prayer upon M 86
its object something more M 86
its member groups have M 86
its handle shaped like M 86
its further course from M 86
its escape through such M 86
its entire strength from M 86
its earlier phases have M 86
its weight behind these M 84
its weekly meetings during M 84
its special claims upon M 84
its nature exempt from M 84
its narrow limits have M 84
its mighty waters into M 84
its effect mainly upon M 84
its credit standing will M 84
its common modern meaning M 84
its actual effect during M 84
its waters became less M 82
its various phases pass M 82
its various phases during M 82
its values differ from M 82
its strength fairly well M 82
its normal course during M 82
its narrow ethical ideas M 82
its events should form M 82
its dogmas purely ideal M 82
its bright waters were M 82
its waters through many M 80
its various stages during M 80
its school system during M 80
its safety should have M 80
its motions become more M 80
its latent powers into M 80
its effect evenly upon M 80
its eastern border along M 80
its course through what M 80
its monthly meetings there M 51
its earlier stages more M 44
its annual meetings there M 41
its colour varies from D 2526
its height varies from D 1498
its annual income from D 1374
its annual session held D 1161
its nuclear weapons from D 992
its weight varies from D 896
its marching orders from D 888
its maiden flight from D 744
its second session held D 730
its annual budget from D 678
its courts always open D 628
its income mainly from D 560
its income solely from D 544
its policy toward south D 506
its policy toward north D 502
its entire income from D 482
its entire extent from D 450
its deeply forked tail D 432
its amount varies from D 410
its special session held D 384
its status changed from D 376
its waters flowed into D 356
its turbid floods into D 352
its oxygen supply from D 350
its leaders should have D 346
its quaint events were D 332
its strength varies from D 300
its lowest levels during D 294
its leaders became more D 294
its atomic weight must D 294
its reflex effect upon D 286
its ground troops from D 286
its export income from D 282
its tendon passes over D 281
its sounds strike upon D 270
its bright rivers leaping D 270
its bounding course into D 262
its origin partly from D 254
its strength partly from D 252
its allies should have D 252
its almost shaggy depth D 250
its limpid waters into D 246
its origin farther back D 242
its warbling waters drew D 240
its atomic weight will D 234
its turbid waters into D 230
its return flight from D 216
its former leaders were D 216
its sombre shadow over D 212
its tender passion rose D 210
its member nations have D 208
its extent varies from D 208
its golden mantle over D 206
its utmost height when D 204
its nuclear weapons were D 204
its combat troops from D 196
its indoor swimming pool D 192
its fibers insert into D 190
its mighty pillar rising D 188
its savage charms have D 186
its dollar holdings into D 186
its second session from D 184
its status changes from D 182
its treble damage suit D 180
its actual income from D 176
its seventh session held D 170
its special flavor from D 168
its carbon dioxide into D 168
its relaxing effect upon D 166
its chafed waters into D 166
its nuclear options open D 165
its lowest levels ever D 165
its office bearers were D 164
its member nations were D 164
its spreading boughs have D 162
its little flower beds D 162
its findings without ever D 159
its thermal energy into D 158
its second atomic bomb D 158
its unique status among D 156
its latest nursling fled D 156
its policy toward other D 154
its carbon dioxide from D 154
its special status among D 152
its radius vector will D 152
its policy makers have D 152
its crushing weight upon D 152
its powers derive from D 150
its atomic number from D 150
its turbid waters much D 148
its rental income from D 148
its public sector debt D 148
its plumes floating over D 148
its atomic weight from D 146
its headlong waters from D 144
its authors headlong from D 144
its nature varies from D 142
its little inborn tune D 142
its initial forays into D 140
its little velvet nose D 138
its opinion should have D 136
its houses sacked just D 136
its former robust self D 134
its annual flower show D 133
its proper sphere when D 132
its menacing shadow over D 132
its eastern shores till D 130
its stroke volume into D 128
its session without having D 128
its fibers extend from D 128
its trivial foliage free D 126
its target payout ratio D 126
its proper speeds were D 126
its eastern shores were D 126
its crushing effect upon D 126
its special status from D 122
its leaders turned their D 122
its utmost extent along D 120
its throbbing waters into D 120
its tendon passes deep D 120
its proper native name D 120
its swelling crests were D 118
its solemn public duty D 118
its entire larval life D 118
its effect varies from D 118
its various nations some D 116
its solemn murmur most D 116
its policy toward these D 116
its narrow wicket gate D 116
its impact varies from D 116
its emerging issues task D 116
its oxygen enters into D 114
its laurel shades will D 114
its values upside down D 113
its widely opened mouth D 112
its various organs have D 112
its second nuclear test D 110
its nuclear weapons only D 110
its leaders relied upon D 110
its banner without ever D 110
its annual income will D 110
its unique flavor from D 108
its tinkling murmur down D 108
its stormy answer like D 106
its roused mental life D 106
its public policy role D 106
its exempt status when D 106
its entire budget from D 106
its leaders become more D 104
its double summit coal D 102
its online auction site D 100
its lovely little coal D 100
its former allies from D 100
its dictum changed their D 100
its tyrant temper best D 98
its pretty flimsy veil D 98
its policy stance from D 98
its former vacant gaze D 98
its active enzyme form D 98
its weekly errand bore D 96
its subtle poison into D 96
its future income from D 96
its dearest rights must D 96
its credit policy from D 96
its wonted sphere into D 94
its widest extent from D 94
its utmost extent over D 94
its partial double bond D 94
its nuclear forces from D 94
its income partly from D 94
its fashion passes away D 94
its degree varies from D 94
its dearest pledge from D 94
its course without leaving D 94
its azimuth circle give D 94
its angular points from D 94
its allies differ from D 94
its member nations will D 92
its little tender arms D 92
its leaders behind bars D 92
its extent varied from D 92
its course plunged from D 92
its mantle through some D 90
its leaders should keep D 90
its hidden motive will D 90
its golden temple were D 90
its former soviet ally D 90
its brawling waters were D 90
its bleaching effect upon D 90
its policy became more D 89
its torpid misery come D 88
its tender shoots will D 88
its policy makers were D 88
its nuclear weapons have D 88
its maiden flight over D 88
its former allies were D 88
its fierce yellow eyes D 88
its fibers radiate from D 88
its energy levels will D 88
its cramping effect upon D 88
its opinion striking down D 87
its withering blight over D 86
its native format into D 86
its famous native sons D 86
its dipole moment will D 86
its bright yellow legs D 86
its united nations dues D 84
its nearest rivals were D 84
its merely verbal jingle D 84
its hurrying waters break D 84
its height looked down D 84
its equity powers over D 84
its deluge strength when D 84
its wonted effect upon D 82
its turbid waters along D 82
its little wheels will D 82
its height twelve feet D 82
its headlong course till D 82
its golden aspect only D 82
its weight pressing upon D 80
its utmost height during D 80
its special session will D 80
its nuclear weapons will D 80
its marching through their D 80
its infant strength must D 80
its income toward rent D 80
its finite regions know D 80
its extent depend upon D 80
its bitter attack upon D 80
its annual exodus from D 80
its hideous groans join D 50
its weight pressing down D 47
its export prices rise D 44
