between two opposing forces M 9310
between its member states M 3611
because they almost always M 3336
between two liquid phases M 2972
between two member states M 2219
believe that another person M 2188
because they wanted something M 1806
because his younger brother M 1596
because for various reasons M 1578
between two opposing groups M 1496
between two stable states M 1334
because she always wanted M 1312
because they always seemed M 1204
because she always seemed M 1184
because she wanted something M 1174
believe that anyone should M 1145
believe that market forces M 1092
believe that united states M 1070
because they uphold thereby M 1066
between two energy states M 1037
between two points without M 972
because she needed someone M 872
beholds his victim before M 848
because they needed someone M 842
beliefs and values through M 828
between two limiting values M 812
between all member states M 806
believe that judges should M 774
beliefs and values shared M 740
because you should always M 728
because they always wanted M 718
because she always looked M 680
between two normal faults M 662
because they worked harder M 662
because she always thought M 660
believe that something should M 644
because they wanted someone M 630
believe that matter exists M 626
between two states remote M 608
because she needed something M 600
between two opposing points M 592
because they passed through M 590
because they shared common M 566
because they depend heavily M 560
believe that family planning M 544
between his younger brother M 542
because you always wanted M 536
beginning with united states M 535
between being denied rights M 530
because her younger sister M 529
between two opposing worlds M 528
because she wanted someone M 526
because she turned around M 523
because his family needed M 522
because they simply wanted M 518
because you wanted something M 510
because for obvious reasons M 510
believe that something inside M 505
because our mothers taught M 502
believe that mothers should M 498
beliefs and values should M 492
because they travel through M 454
because each family member M 446
because her family needed M 444
between them without touching M 442
believe that adults should M 438
because they differ greatly M 438
because they relied heavily M 436
between two united states M 431
between two worlds become M 430
believe that humans should M 428
between two opposing theories M 424
because they expect something M 424
beliefs and values affect M 422
between two gentle ladies M 420
between two points across M 410
believe you should always M 404
because they extend beyond M 401
believe that something exists M 400
because they freely choose M 400
because they seemed likely M 399
because they greatly reduce M 382
between two already existing M 378
between two voiced sounds M 373
beliefs and feelings toward M 368
between two object points M 362
between two family groups M 362
believe that pupils should M 362
believe that almost anyone M 360
beliefs are widely shared M 356
because they assume spirit M 354
beliefs are deeply rooted M 348
because she almost always M 348
between two sampling points M 346
because its agents relied M 342
because she thought someone M 340
believe that someone should M 338
because she wanted another M 338
between two remote points M 336
because you expect something M 336
because they always remain M 336
between two points should M 334
besides its direct effect M 332
beliefs and values without M 332
because they always thought M 332
because they needed something M 330
because his immune system M 328
because they showed little M 325
between two opposing powers M 322
benefit and family credit M 322
because they differ widely M 322
beginning and middle stages M 321
between two opposing trends M 316
believe that something better M 313
between two random points M 312
believe that states should M 312
beliefs and ethical values M 312
because they seldom return M 312
because they always looked M 308
because her younger brother M 308
beliefs and common values M 306
between two measuring points M 304
because they mature earlier M 304
between two access points M 302
believing that another person M 300
believe that future events M 300
because his little sister M 300
because they permit greater M 298
because they expect prices M 298
because you forgot something M 290
believe that before another M 288
believe that another factor M 288
because they wanted better M 287
between two mental states M 286
because her little sister M 286
between each family member M 284
because our founding fathers M 284
believe that public school M 282
beliefs and values relating M 282
beginning and middle phases M 277
between two sample points M 276
between two nested models M 276
beliefs and values differ M 276
believe that mental states M 274
because they violate public M 274
because one family member M 274
because they greatly affect M 272
believe that market prices M 270
between two wooden blocks M 268
becomes his second nature M 268
because one should always M 268
between two larger bodies M 266
because they wrongly assume M 262
between two filter papers M 260
because her little brother M 260
believe they should behave M 258
because she thought something M 258
because his entire family M 258
believe that slight changes M 256
believe that fathers should M 256
because his gospel begins M 256
between two existing fields M 254
because they proved beyond M 254
because its member states M 253
between its various groups M 252
because they judged before M 251
between two cities abroad M 250
because she always called M 248
because his eldest brother M 248
between two points equals M 247
believe that better methods M 244
because they should always M 244
between that little volume M 242
believe that mental disease M 241
between them should become M 240
believe that nature itself M 240
benefit that should accrue M 238
because you almost always M 238
between them became greater M 234
believe that nature should M 234
because his younger sister M 234
between our mental states M 232
believe they should always M 232
because she seemed unable M 232
between two mighty powers M 230
beliefs and values become M 230
because they wanted another M 230
between them should depend M 228
between its various stages M 228
believe that prayer should M 228
because his little brother M 228
because her immune system M 228
because they thought something M 226
between them except through M 224
because she seemed pleased M 222
between two speech sounds M 220
between them became almost M 220
beliefs and mental models M 220
because they thought someone M 220
because they needed another M 220
because they proved useful M 218
between his public duties M 212
believe that nobody should M 212
benefit one person without M 210
because they attend church M 210
because they simply refuse M 206
because they sensed something M 206
between two opposing guards M 204
between two worlds without M 202
because they worked better M 202
because that horror arises M 202
believe that school should M 200
because they expect higher M 199
believe that unless something M 198
between two founding peoples M 196
between one family member M 196
becomes yet another factor M 196
because they needed special M 196
between two points inside M 195
between two public beaches M 194
between two liquid layers M 192
believe that prices should M 192
believe that anyone except M 191
between them passed through M 190
between its annual meetings M 190
beliefs and mental habits M 190
because they always served M 190
because our immune system M 190
beliefs and values around M 189
between two opposing feelings M 188
believe that babies should M 188
because she simply wanted M 188
between two opposing states M 186
between two ground points M 186
between them stands another M 186
becomes yet another source M 186
because they seemed unable M 186
because they always retain M 186
believe they should follow M 184
because they center around M 182
because his family wanted M 182
between two marked points M 180
because man became fallen M 180
between two points through M 178
beliefs and shared values M 178
beliefs and actions without M 178
because they learned something M 178
because his mental powers M 178
between its various states M 176
believe that another member M 176
because they seemed better M 175
between two wooden covers M 174
between two mighty forces M 174
between two bodies without M 174
believe they should remain M 174
because his former master M 174
because they worked through M 173
because they wanted access M 172
because our visual system M 172
between two vowels belongs M 170
between two points marked M 170
between them should remain M 170
believe that nature exists M 170
because not enough energy M 169
because you needed someone M 168
because they attend school M 168
because she sensed something M 168
between two chosen points M 166
because they showed greater M 165
between two little streams M 164
believe that planning should M 164
beliefs and actions should M 164
because they wanted higher M 164
because they simply forget M 164
because they already shared M 164
because they absorb little M 164
believe that shared values M 163
because not enough thought M 163
between this latter branch M 162
between them passes through M 162
besides this direct effect M 162
believe you should follow M 162
believe that whoever killed M 162
believe that behind nature M 162
beliefs are always common M 162
behaved with becoming spirit M 162
between two mature adults M 160
because you wanted someone M 160
because they simply prefer M 160
because they always follow M 160
between her younger sister M 158
believe that something called M 158
beginning who should betray M 158
between two existing abuses M 156
between two corner points M 156
between two branch points M 156
believe that something strange M 156
because you thought someone M 156
because they supply energy M 156
because they helped define M 156
because not enough effort M 156
because her family wanted M 156
believe that higher prices M 154
beliefs are formed through M 154
behaved with proper spirit M 154
because they neither expect M 154
because they always needed M 154
because they afford greater M 154
because that person belongs M 154
believe that training should M 152
believe that reality exists M 152
because they remain active M 152
because they happen seldom M 152
because they always happen M 152
because our number system M 152
between two opposing values M 150
believe that forces beyond M 150
becomes our second nature M 150
because she always wishes M 150
because they looked pretty M 149
between two annual meetings M 148
between and across groups M 148
believe that readers should M 148
believe that modern humans M 148
beliefs and values toward M 148
because they worked without M 148
because they wanted greater M 148
because they always called M 148
because its immune system M 148
between and across various M 146
believe that someone sought M 146
beliefs and values before M 146
because you needed something M 146
because they relate solely M 146
because they differ little M 146
because our mental images M 146
between two stated points M 144
beginning and primal origin M 144
because they depend solely M 144
between two states should M 142
between two existing points M 142
believe that through prayer M 142
believe one should always M 142
beliefs are almost always M 142
because they always depend M 142
because our mutual friend M 142
between two points placed M 140
believe that weight training M 140
believe that matter itself M 140
believe that anyone thought M 140
because they proved unable M 140
because they happen almost M 140
because they depend mainly M 140
because they clearly define M 140
between two sample values M 139
between dry matter intake M 139
between two sample groups M 138
besides its direct passion M 138
because this reaction occurs M 138
because they seemed already M 138
believe that something serious M 136
because they permit direct M 136
because they expect future M 136
because they desire greater M 136
because they always worked M 136
between two points already M 134
between two double layers M 134
between our various states M 134
between die united states M 134
believe that school choice M 134
beginning for adults abused M 134
because you should already M 134
because this almost always M 134
because any number raised M 134
between two bodies placed M 132
between one another without M 132
between her younger brother M 132
between and across states M 132
because this allows greater M 132
because she turned toward M 132
because she always treated M 132
because they remain hidden M 131
between two points chosen M 130
between two points called M 130
between two events depend M 130
believing that mental powers M 130
believe them through reasoning M 130
beliefs and values across M 130
because they depend almost M 130
because she seemed always M 130
believe too little yielding M 129
beliefs and family values M 129
between two sampling periods M 128
between two bright lights M 128
between them should always M 128
believe that groups should M 128
beginning its second decade M 128
because this system allows M 128
because this design belongs M 128
because this clause seemed M 128
because they desire something M 128
because that course seemed M 128
because she always stayed M 128
because its proper object M 128
believe that prayer changes M 126
believe that hardly anyone M 126
beliefs and public actions M 126
because they affect almost M 126
between them without regard M 124
between them became closer M 124
because she seemed amused M 124
because his master wanted M 124
because they expect better M 123
between two points served M 122
between two opposing visions M 122
believe that fiction should M 122
because you thought something M 122
because you learned something M 122
because they simply follow M 122
because they raised issues M 122
because they learned through M 122
because they commit crimes M 122
because they always expect M 122
because six little brother M 122
because she thought nobody M 122
between two states without M 120
believing that something exists M 120
believe that changes should M 120
because they afford matter M 120
between two street lights M 119
beginning and follow through M 119
between them without injuring M 118
between its various phases M 118
between its various peoples M 118
believe that greater effort M 118
because you always thought M 118
because they seemed almost M 118
because they embody values M 118
because they always assume M 118
because our school system M 118
because one should expect M 118
because his teachings seemed M 118
beginning and carrying through M 117
between two higher points M 116
between them seemed almost M 116
between his mental powers M 116
between all groups except M 116
believe that unless actual M 116
believe that future changes M 116
believe each person should M 116
beliefs that center around M 116
beliefs and values common M 116
because you always seemed M 116
because they raised prices M 116
because her family thought M 116
because they become better M 115
between two events without M 114
between them become filled M 114
between long normal states M 114
between any member states M 114
believe that school reform M 114
believe that member states M 114
beliefs are mental states M 114
because they wonder whether M 114
because death occurs before M 114
because all peoples always M 114
because they tasted better M 113
between two greater powers M 112
believe they should become M 112
beliefs and values remain M 112
because they needed access M 112
because they always relate M 112
because she looked pretty M 112
because our limits compel M 112
between two opposing models M 110
between them become larger M 110
between our mutual friend M 110
believe that nature created M 110
because this measure appears M 110
because they wrongly thought M 110
because they looked better M 110
because they always stayed M 110
because she always smiled M 110
because its design allows M 110
because his family always M 110
between one another through M 108
believe them without further M 108
because they always aspire M 108
because our fallen nature M 108
because for reasons already M 107
between two points touching M 106
between his belief system M 106
believe you should accept M 106
believe that middle eastern M 106
believe that chance events M 106
believe that before quitting M 106
beliefs and actions through M 106
becomes law without further M 106
because they thought proper M 106
because they thereby become M 106
because they permit better M 106
between two points always M 104
between two opposing wishes M 104
between all points served M 104
betraying her duties toward M 104
benefit this honest fellow M 104
believe that speech should M 104
believe that something special M 104
believe that someone wanted M 104
believe that further changes M 104
believe our modern methods M 104
beliefs and mental states M 104
because she always worked M 104
because not enough memory M 104
because his oldest brother M 104
because his family thought M 104
because his divine nature M 104
between two ground states M 103
between two parent plants M 102
between one monthly return M 102
between his former dogmas M 102
between her softly parted M 102
believe that kindly feelings M 102
believe that further effort M 102
beliefs and values behind M 102
because they decide whether M 102
because each person should M 102
between two trains belonging M 100
between two starting points M 100
between two points changes M 100
between two opposing streams M 100
between two mental events M 100
between this second edition M 100
between his feelings toward M 100
between his divine nature M 100
believe this matter should M 100
believe that formal methods M 100
beliefs and values intact M 100
because this effect occurs M 100
because they suffer little M 100
because they simply assume M 100
because they should already M 100
because they obeyed orders M 100
because they desire further M 100
because they always return M 100
because its profit margin M 100
because its object exists M 100
because her entire family M 100
because they circle around M 99
between two states belonging M 98
between two finite limits M 98
between them without further M 98
between them seemed likely M 98
between his younger sister M 98
between her monthly periods M 98
beliefs and values relate M 98
becomes yet another version M 98
because they charge higher M 98
because they always remind M 98
because she always forgot M 98
because our fathers taught M 98
because they turned around M 97
between two signal points M 96
between two mighty opposing M 96
between two finite values M 96
between two common points M 96
believe that reality itself M 96
believe that caution should M 96
beliefs and values formed M 96
beliefs and values changed M 96
because they simply ignore M 96
because they become overly M 96
because they always agreed M 96
because his manner seemed M 96
because his brother wanted M 96
because big states afford M 96
believe that strength training M 95
because they looked beyond M 95
between two points before M 94
between two mighty kingdoms M 94
between two bodies touching M 94
benefit that trains should M 94
believe they should pursue M 94
believe that events happen M 94
believe that credit should M 94
believe that cities should M 94
believe that anyone wanted M 94
believe that another attack M 94
believe not without effect M 94
believe for various reasons M 94
beliefs and actions toward M 94
beginning with creation itself M 94
because you should realize M 94
because they thought highly M 94
because they further reduce M 94
because they extend through M 94
because they extend credit M 94
because they expect another M 94
because they become active M 94
because they absorb energy M 94
because she appears before M 94
because our mental powers M 94
between two little blocks M 92
between two bodies always M 92
believe that values should M 92
because you missed something M 92
because they simply forgot M 92
because they seemed beyond M 92
because they relied solely M 92
because his spirit dwells M 92
between them become greater M 90
between them became common M 90
between our animal nature M 90
between all states should M 90
believe this second edition M 90
believe that former habits M 90
beliefs and values became M 90
behaved with guilty caution M 90
because this second belief M 90
because they prefer another M 90
because they always showed M 90
because they affect future M 90
because she always joined M 90
because she always bought M 90
because his reasoning powers M 90
between two states existing M 88
between two opposing bodies M 88
between two middle eastern M 88
believe that reform should M 88
believe that greater weight M 88
beginning with public preaching M 88
beginning with causal agents M 88
beginning with another letter M 88
because they become anxious M 88
because she always needed M 88
because any burden caused M 88
between two wooden frames M 86
between two simple bodies M 86
between two maiden ladies M 86
between his animal nature M 86
besides this obvious burden M 86
besides this little matter M 86
believe that actors should M 86
believe how vastly hugely M 86
because they depend wholly M 86
because they define better M 86
because they become useful M 86
because they always prefer M 86
because they always played M 86
because they always fought M 86
because his spirit burned M 86
because his scheme seemed M 86
because god worked through M 86
between two visual images M 84
between two potent states M 84
between two lovely ladies M 84
believe they should accept M 84
believe that virtue should M 84
believe that teacher training M 84
believe that another source M 84
beliefs are learned through M 84
beliefs and values already M 84
becomes not merely something M 84
because you should expect M 84
because they merely affirm M 84
because they created something M 84
because they become filled M 84
because they always result M 84
because they afford better M 84
because she looked younger M 84
because she always turned M 84
because that sounds better M 83
between two stable points M 82
between two kingdoms without M 82
between two highly placed M 82
between its various senses M 82
between her feelings toward M 82
believe that neither myself M 82
beginning with simple feelings M 82
because you always forget M 82
because they showed clearly M 82
because they permit higher M 82
because they permit access M 82
because they happen without M 82
because they clearly showed M 82
because they always travel M 82
because she forgot something M 82
because his memory failed M 82
between two almost insane M 80
between them without altering M 80
between each lovely couple M 80
between age groups should M 80
besides one vessel called M 80
believe this figure should M 80
believe that mental events M 80
beliefs and values learned M 80
beliefs and values define M 80
because this disease occurs M 80
because they expect greater M 80
because men without active M 80
because air passes through M 80
because they walked around M 76
between any united states M 59
because she worked harder M 57
beholds and enjoys itself M 54
believe that ethical issues M 53
because too little thought M 52
because too little effort M 52
because they wanted neither M 51
between two clearly marked M 50
because she walked around M 50
believe that middle school M 48
because they played better M 48
because she looked better M 47
believe that mental images M 46
believe that someone inside M 45
believe that divine wisdom M 45
believe that modern methods M 42
because they neither desire M 42
because all member states M 42
beginning and almost without M 41
because they sought better M 40
because they needed little M 40
behavior and public policy D 4997
between two energy levels D 3782
believe that public opinion D 3482
believe that nuclear weapons D 2092
behavior and member reaction D 1808
behavior and public opinion D 1351
benches and picnic tables D 1310
between two opposing armies D 1024
bedroom and looked around D 954
believe that fiscal policy D 912
between two nuclear powers D 772
believe that public policy D 716
between two carbon points D 678
because they lacked access D 676
between two bodies varies D 669
between two copper plates D 656
because they lacked proper D 648
believe that courts should D 646
benefit and family income D 604
between two wooden boards D 598
believing that public opinion D 562
beginning his public career D 538
between two aqueous phases D 531
behavior and belief through D 528
believe that blacks should D 522
between two widely spaced D 512
behavior and mental states D 510
between real estate agents D 498
behavior and mental status D 486
because they ingested peyote D 451
between two anchor points D 448
believe that nuclear energy D 448
between two ground planes D 426
between her breasts before D 414
because real estate values D 414
between two nuclear states D 408
between two hollow organs D 396
believe that policy makers D 388
between two landau levels D 374
believe that sexual desire D 372
behavior and bodily disease D 369
between two mighty armies D 368
believe that family therapy D 368
between two silica sheets D 366
believe that carbon dioxide D 354
between two carbon plates D 352
because real estate agents D 344
because they lacked enough D 340
between our bodily frames D 334
between two quartz plates D 330
between two oceanic plates D 328
because they wanted revenge D 328
beloved and almost adored D 324
believe that nurses should D 318
believe that soviet leaders D 316
behavior and feelings toward D 312
between two rotating coaxial D 306
between two convex lenses D 296
believe that leaders should D 294
between two forked sticks D 292
between two atomic states D 286
between its member nations D 284
behavior are learned through D 282
benefit for revealing equity D 276
believe that jurors should D 274
behavior with another person D 272
believe that public sector D 270
between two french armies D 268
believe that higher levels D 268
behavior and decide whether D 266
between two porous plates D 262
between its various levels D 260
bedroom and looked through D 259
between two square towers D 258
because they simply lacked D 256
between two pewter plates D 254
between his actual income D 250
believe that therapy should D 246
between our bodily powers D 244
between its various regions D 242
between two atomic levels D 240
believe that recent events D 240
because they lacked training D 240
because not enough oxygen D 239
between two copper blocks D 238
between two rivers without D 236
between two atomic nuclei D 234
beloved and valued friend D 234
because real estate prices D 234
bequeathing his entire estate D 232
between two mighty nations D 230
because its atomic weight D 230
between two allied states D 228
between two porous stones D 226
because they lacked skills D 224
believe that nations should D 222
between two tribal groups D 214
behavior that occurs without D 214
behavior are almost always D 214
between two vector spaces D 213
behavior and public issues D 208
between two silver plates D 206
between low family income D 206
benzene and carbon dioxide D 206
believe that school boards D 204
beginning with income before D 204
because they lacked formal D 202
between two needle points D 196
behavior and belief system D 196
between two wooded ridges D 194
between two female saints D 194
bedroom and changed clothes D 194
besides being buried midway D 190
believe that infringing copies D 190
behavior that causes injury D 190
because its atomic number D 190
between two nations should D 188
berries and edible plants D 188
benefit and public policy D 184
beloved and sacred legend D 184
behavior and higher levels D 182
between its weight vector D 181
because they readily absorb D 180
behavior and thereby reduce D 178
behavior has little effect D 176
behavior and family planning D 176
behavior and breeding biology D 176
between two mighty rivers D 174
between all nations belonging D 174
benzene and glacial acetic D 173
between and across levels D 172
because they travel faster D 172
between two stakes driven D 170
between his narrow hollow D 170
between two sister nations D 168
between two native tribes D 168
between two atomic energy D 168
between two wooden planks D 166
between two pickup trucks D 166
between two flanking towers D 166
believe that atomic energy D 164
because they lacked strength D 162
between old sloops filled D 160
beseech you become humble D 160
believe that policy should D 160
between two towering cliffs D 158
between its wooded shores D 158
behavior and shared values D 158
because they lacked talent D 158
bedroom and looked inside D 157
believe that soviet policy D 156
believe that estate planning D 154
because they lagged behind D 154
benches and chairs around D 153
between two pirate fleets D 152
believe that income should D 152
behavior and energy policy D 152
because its leaders thought D 152
between all former slaves D 150
berries and citrus fruits D 150
benches and chairs placed D 150
because she always talked D 150
because his lawyer failed D 150
between two quartz shells D 148
between two mirror points D 148
between two former allies D 148
between two carbon blocks D 148
between mean annual runoff D 148
beggars and walked firmly D 148
between our closed eyelid D 146
benches and little tables D 146
because they always talked D 146
between two signal levels D 144
between two narrow strips D 144
because its leaders lacked D 144
between two direct repeats D 143
beliefs and public policy D 142
behavior that already exists D 142
because they lacked direct D 142
between with breathings almost D 140
between two normal metals D 140
between two dinner plates D 140
beloved and highly gifted D 140
because his mental floors D 140
benzene and passed through D 139
between two common thieves D 138
between two thicker layers D 136
between two stones before D 136
between two little rivers D 136
between two grinding stones D 136
between two cladding layers D 136
between two atomic planes D 136
between two savage tribes D 134
bequeaths his entire estate D 134
beloved and highly valued D 134
behavior and mental events D 134
between two former lovers D 132
believing that nuclear weapons D 132
between two cathode planes D 130
between this remote island D 130
benefit low income groups D 130
believe that united nations D 130
behavior was almost always D 130
bedroom and softly closed D 130
becomes one molten mantling D 130
between two rotating shafts D 128
between two muscle fibers D 128
between them varies greatly D 128
benefit all income groups D 126
benches and tables should D 126
believe that reducing stress D 126
believe that police should D 126
behavior that occurs through D 126
behavior may differ greatly D 126
behavior has changed little D 126
between its various organs D 124
believe that slaves escaping D 124
between two census periods D 122
beginning his active career D 122
becomes not merely opinion D 122
believe that recent changes D 121
between two spatial points D 120
between two little ridges D 120
between two highly inbred D 120
between two glacial periods D 120
between two courts relating D 120
between two bamboo sticks D 120
between our estate before D 120
between its energy levels D 120
bestowing that little wretch D 120
besiege this school teacher D 120
behavior had little effect D 120
between two nuclear energy D 118
between her little breasts D 118
between her bottom cheeks D 118
because his family lacked D 118
behavior and neural biology D 117
between his sexual desire D 116
between her monthly maxima D 116
believe that theology should D 116
beliefs that propel groups D 116
behavior that should result D 116
between two letter grades D 114
behavior for various reasons D 114
behavior and verbal report D 114
beginning his school career D 114
because they convey something D 114
because they always tilted D 114
beauties and hidden graces D 114
between her swelling breasts D 112
benches and wooden tables D 112
beloved and chosen agents D 112
because its dipole moment D 112
between two kneeling camels D 110
between two chairs placed D 110
between two cardiac muscle D 110
behavior with verbal praise D 110
behavior was learned through D 110
behavior that causes serious D 110
behavior are deeply rooted D 110
between her lovely breasts D 108
between her finely arched D 108
believe that whites should D 108
behavior has little impact D 108
because they readily accept D 108
because they absorb carbon D 108
because its leaders failed D 108
between two silica layers D 106
between two kneeling saints D 106
between this radius vector D 106
believe that twenty million D 106
because they depend partly D 106
because they absorb oxygen D 106
between with cleanly gravel D 104
between two plates carrying D 104
between two nuclear levels D 104
benches and wooden chairs D 104
beloved and trusty friend D 104
bedroom and walked across D 104
bedroom and locked myself D 104
because they worked cheaper D 104
because they invest heavily D 104
between two thickly wooded D 102
between two parked trucks D 102
berries and grains subdue D 102
believe that simple flight D 102
behavior with little regard D 102
because our sinful nature D 102
because his brakes failed D 102
between two planes through D 100
between two mobile phones D 100
between two mighty storms D 100
between two income groups D 100
between new oxford street D 100
between its atomic weight D 100
besides its titled leaders D 100
beholding her silent wishes D 100
behavior was freely chosen D 100
bedroom and walked through D 100
between two places without D 98
between two native chiefs D 98
betters had better reasons D 98
because his inborn desire D 98
between two output levels D 96
between two lineage groups D 96
between two allied armies D 96
between each stroke seemed D 96
bestowing any further thought D 96
beloved and looked toward D 96
behavior that occurs before D 96
behavior may differ across D 96
bedroom and gently placed D 96
because they lacked modern D 96
because his entire career D 96
beauties had better hasten D 96
because they become coated D 95
between them whether charms D 94
between low plasma levels D 94
behavior was another matter D 94
behavior for another person D 94
behavior and sexual desire D 94
because they taught treason D 94
because they relish novels D 94
between two wooded knolls D 92
between two standing stones D 92
between two sacred groves D 92
between two cosmic forces D 92
between any radius vector D 92
betters are served before D 92
believe that standing armies D 92
because they mature faster D 92
because you wanted revenge D 91
between two status groups D 90
between two muscle groups D 90
between two houses across D 90
between two active regions D 90
between new jersey avenue D 90
beliefs are firmly rooted D 90
beliefs and public opinion D 90
beholding its various tribes D 90
behavior has become common D 90
because they lacked standing D 90
because they lacked family D 90
between two island points D 88
between two gentle slopes D 88
between its actual income D 88
believe that french policy D 88
behavior had already become D 88
behavior and values through D 88
behavior and breeding habits D 88
bedroom and rifled through D 88
bedroom and firmly closed D 88
because they offend public D 88
benzene rings linked through D 87
between two masses varies D 86
between his actual status D 86
between her maxims merely D 86
between both nations should D 86
besides his broken fiddle D 86
believe they routed armies D 86
because its tendon passes D 86
between two wooden strips D 84
between this plenty ripening D 84
benefit that amiable prince D 84
beloved and unjust friend D 84
beliefs and ritual actions D 84
behavior and thereby affect D 84
because they awaken unrest D 84
bedroom and gently closed D 83
between two towering ridges D 82
between two points varies D 82
between two plates placed D 82
between two little boards D 82
benumbs and cramps genius D 82
believe that sports should D 82
bedroom and peered through D 82
because they wanted office D 82
because they tended toward D 82
because one report refers D 82
between two planes normal D 80
between two places scarce D 80
between that sombre chapel D 80
believe this secret closet D 80
believe that policy changes D 80
behavior may differ widely D 80
because they pleaded guilty D 80
because that secret closet D 80
behavior and follow through D 57
between two superb silver D 53
believe that atomic weapons D 52
believe that dental caries D 50
beggars are always knaves D 49
between two helium nuclei D 46
believe that public office D 44
believe that sexual energy D 42
bedroom and peeked inside D 40
