tests of mental ability M 17789
teaching in public schools M 9007
tests of verbal ability M 3218
terms of actual numbers M 3168
terms of mutual respect M 2980
tends to become chronic M 2881
terms of another country M 1806
terms of public service M 1714
teaching of formal grammar M 1672
tends to become stronger M 1476
terms of mental illness M 1444
terms of future research M 1376
terms of public support M 1342
teaching the spoken language M 1306
terms of clearly defined M 1296
teaching in second language M 1117
tends to become uniform M 1102
tests of immune function M 1036
tests of strength between M 962
tests of simple effects M 922
terms of energy content M 919
terms of matrix algebra M 905
tests of visual function M 884
terms of visual imagery M 858
teaching of modern history M 847
tends to regard himself M 840
terms of mutual benefit M 827
tests to measure student M 793
terms of course content M 784
tends to follow certain M 760
tends to become shorter M 754
terms of various aspects M 736
teaching to devote himself M 714
terms of market failure M 710
terms of actual results M 686
terms of direct effects M 678
tends to become reduced M 678
testing in public schools M 665
terms of annual average M 654
teaching in various schools M 648
tells in simple language M 640
terms of family history M 636
tends to reduce everything M 634
terms of various criteria M 626
tends to further increase M 616
terms of causal factors M 614
tests of reasoning ability M 610
teaching of second language M 608
terms of mental ability M 600
terms of common language M 588
terms of various factors M 586
terms of weight percent M 582
teaching of church history M 556
tends to reduce anxiety M 548
terms of modern western M 546
teaching in normal schools M 534
terms of energy balance M 524
terms of initial capital M 520
terms of something familiar M 510
tests to assess student M 506
terms of disease control M 506
terms of another language M 503
tends to become general M 495
terms of volume fraction M 484
terms of active service M 480
teaching the second language M 468
testing of family members M 460
tends to become routine M 458
terms of second language M 456
tests in public schools M 454
terms of better quality M 446
terms of market position M 434
terms of direct address M 434
teaching in middle schools M 434
terms of something outside M 431
terms of mutual support M 430
terms of modern society M 420
terms of closed systems M 420
terms of common descent M 418
tests of mental function M 414
terms of purely logical M 410
terms of market exchange M 404
terms of belief systems M 400
terms of various measures M 396
terms of another culture M 394
tends to reduce profits M 388
teaching in church schools M 387
tends to public utility M 380
terms of spoken language M 378
terms of mortal defiance M 374
teaching in special schools M 372
teaching of spoken language M 370
tends to follow closely M 368
tends to differ between M 364
tests of memory function M 362
terms of forces between M 360
terms of further research M 356
terms of shared beliefs M 354
terms of choice between M 354
tends to become complex M 353
tends to become trapped M 348
testing in future research M 338
teaching in mission schools M 338
tends to become divided M 336
teaching at various schools M 333
terms of another concept M 332
terms of formal criteria M 330
terms of weight control M 328
terms of credit offered M 328
terms of actual figures M 328
terms of actual content M 326
terms of purely natural M 324
terms of higher quality M 324
terms of direct contact M 324
terms of animal imagery M 320
tests of second language M 319
terms of family members M 316
tends to become limited M 314
terms of special effects M 312
terms of another function M 312
terms of actual conduct M 308
terms of visual quality M 306
tends to reduce overall M 305
teaching of modern language M 304
tends to become passive M 302
tends to become obscure M 302
terms of source material M 300
terms of choosing between M 300
terms of various degrees M 298
terms of binary numbers M 298
tests of special ability M 296
terms of energy released M 296
terms in another language M 296
tends to greatly increase M 296
terms of family systems M 292
terms of access control M 292
tests of mental rotation M 284
terms of common factors M 282
terms of divine purpose M 280
terms of verbal ability M 278
terms of school success M 274
terms of global climate M 274
terms of family support M 274
tends to divide society M 274
terms of something simpler M 272
terms of issues related M 272
terms of energy quality M 268
terms of better service M 268
tends to divide between M 268
tends to become periodic M 268
terms of energy sources M 264
terms of verbal symbols M 262
terms of credit granted M 262
teaching by object lessons M 261
terms of object classes M 260
tends to become steadily M 256
tests of various aspects M 254
terms of purely material M 254
terms of actual service M 254
texts on various aspects M 252
terms of greater freedom M 250
terms of actual research M 250
tends to reduce poverty M 250
terms of excess returns M 249
tends to evolve towards M 246
terms of family position M 244
tends to become similar M 244
terms in simple language M 242
terms of market research M 240
terms of simple numbers M 238
terms of higher profits M 238
tends to become lighter M 238
tends to become broader M 238
teaching at queens college M 238
testing of theories against M 236
terms of topics covered M 236
terms of divine justice M 236
tends to differ according M 236
terms of debate between M 234
tends to reduce private M 232
tends of itself towards M 232
terms of energy exchange M 228
terms of course offerings M 228
tends to remain outside M 227
tends to remain largely M 226
tends to become focused M 226
terms of public utility M 224
teaching the younger members M 224
terms of finite element M 223
terms of volume percent M 220
terms of credit quality M 220
terms of changes between M 220
terms of pardon offered M 218
texts as source material M 216
terms of higher degrees M 216
terms of formal systems M 216
terms of another unknown M 216
terms of public concern M 214
tends to define himself M 214
tends to become blocked M 214
terms of actual control M 212
tends to return towards M 212
terms of narrow hostile M 206
terms of direct control M 206
tends to remain roughly M 206
tends to become covered M 206
teaching the common schools M 206
tests to measure general M 202
tests in various subject M 202
teaching in common schools M 202
teaching of various aspects M 201
tends to further decrease M 198
teaching in special classes M 198
terms of public benefit M 196
terms of mutual exchange M 194
tells of another occasion M 194
terms of design quality M 192
tends to reduce average M 192
tends to impose certain M 192
texts in another language M 188
terms of verbal language M 188
terms of future payment M 188
tends to become evident M 188
terms of mental content M 184
terms of gender balance M 184
terms of ethical conduct M 184
terms of mental suffering M 182
tells us almost everything M 181
testing of expert systems M 180
terms of weight fraction M 178
terms of public affairs M 178
terms of modern history M 178
terms of modern culture M 178
tends to reduce capital M 177
terms of sacred history M 176
terms of limiting factors M 176
terms of binary choices M 176
terms in common between M 175
tends to happen because M 175
testing in future studies M 174
tends to become weakened M 172
teaching the various aspects M 172
terms of school buildings M 170
terms of symbol systems M 168
terms of speech quality M 168
tends to remain uniform M 168
tells us pretty plainly M 168
terms of design criteria M 166
tends to become largely M 166
teaching the family members M 166
tests to measure ability M 164
testing of second language M 164
terms of mental process M 164
terms of direct service M 164
tends to become quickly M 164
tends to remain limited M 163
tests to measure certain M 162
terms of visual effects M 162
terms of gender ideology M 162
terms of formal language M 162
tends to become confusing M 162
testing in second language M 161
terms of various systems M 160
terms of mappings between M 160
terms of church history M 160
tends to become aligned M 160
terms of output quality M 158
tends to follow similar M 158
teaching of school algebra M 158
teaching to devote herself M 155
testing of mental ability M 154
terms to become familiar M 154
terms of higher returns M 152
terms of crimes against M 152
terms of another question M 152
tends to reduce complex M 152
tests to decide between M 150
terms of marked respect M 150
terms of actual language M 150
terms by offering violence M 150
tests to become familiar M 148
terms of whether certain M 148
terms of visual language M 148
terms of shifts between M 148
terms of direct material M 148
terms of actual history M 148
terms is another question M 148
tends to become simpler M 148
teaching the higher classes M 148
terms of actual present M 147
terms of shared language M 146
terms of credit allowed M 146
terms of common objects M 146
tends to become totally M 146
terms of proper function M 144
terms of normal function M 144
terms of larger numbers M 144
terms of greater outrage M 144
terms of signal quality M 142
terms of forces operating M 142
terms of existing schemes M 142
tends to reduce religion M 142
tends to become equally M 142
tends to become chaotic M 142
testing the system against M 140
terms of vessel numbers M 140
terms of already familiar M 140
tends to reduce current M 140
testing to measure student M 139
terms of strict justice M 138
terms of special classes M 138
terms of something happening M 138
terms of formal grammar M 138
terms of actual contact M 138
tends to become equated M 138
terms of reaction against M 136
terms of almost perfect M 136
tends to become regular M 136
tends to become extinct M 136
terms in common language M 135
texts on matrix algebra M 134
terms of second moments M 134
terms of mental imagery M 134
terms of demand factors M 134
tends to favour certain M 134
tells us little because M 134
terms of market factors M 132
terms of higher moments M 132
terms of common measures M 132
terms of causal relation M 132
tends to ignore certain M 132
tends to behave according M 132
tends to become extreme M 132
terms of direct current M 131
tends to become rounded M 131
terms of damage control M 130
terms of mental function M 128
tends to reduce surface M 128
tends to become adapted M 128
teaching or public service M 127
texts of various schools M 126
testing of visual function M 126
terms of whether congress M 126
terms of shared culture M 126
terms of public schools M 126
terms of public profile M 126
terms of market success M 126
terms of innate ability M 126
terms of global justice M 126
terms of animal suffering M 126
tends to stress certain M 126
tends to become visible M 126
tests of crucial aspects M 124
terms of mutual sympathy M 124
terms of energy because M 124
terms of already defined M 124
terms of actual decision M 124
tends to depend largely M 124
tests on random samples M 122
testing of random samples M 122
terms of output measures M 122
terms of direct support M 122
terms be clearly defined M 122
tends to become patient M 122
tends to become corrupt M 122
tells us something similar M 122
teaching in itself matters M 122
tests of innate ability M 120
terms of teacher quality M 120
terms of public display M 120
terms of market control M 120
terms of gender because M 120
terms as should require M 120
tends to differ depending M 120
texts of earlier writers M 118
terms of future returns M 118
terms of entire harmony M 118
terms of agreed criteria M 118
tends to select certain M 118
tends to become defined M 118
tests to assess language M 117
testing is needed because M 116
terms of something besides M 116
terms of purely rational M 116
terms of offering support M 116
terms of future success M 116
terms of branch network M 116
terms in direct address M 116
tends to lessen because M 116
terms of expert systems M 114
tends to measure success M 114
tends to further confuse M 114
tends to become useless M 114
tests to assure himself M 113
terms of forces outside M 113
testing is rarely helpful M 112
terms of number correct M 112
terms of greater material M 112
terms of greater control M 112
terms of animal spirits M 112
terms of actual persons M 112
tends to become crowded M 112
teaching the public schools M 112
tends to further support M 111
tests to detect renewed M 110
tests of strength against M 110
terms of visual pleasure M 110
terms of visual display M 110
terms of market criteria M 110
terms of future profits M 110
terms of fighting against M 110
terms of direct benefit M 110
terms of actual effects M 110
tends to expand because M 110
teaching the special subject M 109
tests in finite samples M 108
terms of guarding against M 108
terms of gender justice M 108
terms of direct results M 108
tends to remain passive M 108
tends to remain dormant M 108
tends to become unified M 107
teaching of another subject M 107
terms of visual symbols M 106
terms of simple systems M 106
terms of mutual consent M 106
terms of modern research M 106
terms of gender division M 106
terms by various writers M 106
teaching of various subject M 106
tests of visual imagery M 104
terms of values related M 104
terms of future rewards M 104
terms of fighting ability M 104
terms of family loyalty M 104
terms of changes brought M 104
terms of better schools M 104
terms of actual support M 104
terms of actual quality M 104
terms of actual objects M 104
terms of active support M 104
tends to remove private M 104
tends to emerge between M 104
tends to defend himself M 104
tends to become correct M 104
tends to affect females M 104
teaching in higher schools M 103
tests on various samples M 102
terms of greater numbers M 102
terms of direct utility M 102
terms of another problem M 102
terms of actual measures M 102
tends to become closely M 102
tends to attach himself M 102
tells us something meaningful M 102
tends to suffer because M 101
tests in actual service M 100
testing of models against M 100
terms of public control M 100
terms of existing systems M 100
tends to rotate forward M 100
tends to regard everything M 100
tends to expose himself M 100
tends to assume control M 100
tends to assume certain M 100
tends to affect several M 100
terms of energy capture M 99
teaching at public schools M 99
tests it became evident M 98
tests is greatly reduced M 98
terms of various versions M 98
terms of simple algebra M 98
terms of modern language M 98
terms of immune function M 98
terms of higher product M 98
terms of formal address M 98
terms of energy systems M 98
terms of common culture M 98
terms of actual student M 98
tends to remain focused M 98
tends to reduce present M 98
tends to forget himself M 98
tells the family members M 98
tests to choose between M 97
tests on larger samples M 96
testing of various aspects M 96
terms of public debates M 96
terms of public buildings M 96
terms of highly complex M 96
terms of animal numbers M 96
tends to rotate towards M 96
tends to regard herself M 96
tends to happen between M 96
tends to become realized M 96
tells the family history M 96
teaching in various aspects M 95
tests to detect certain M 94
testing of various systems M 94
testing is useful because M 94
testing is another example M 94
terms of visual function M 94
terms of higher average M 94
terms of ground covered M 94
terms of formal logical M 94
terms of actual success M 94
tends to remain similar M 94
tends to become dormant M 94
tends to adjust himself M 94
terms of direct patient M 93
terms of better patient M 93
tends to become compact M 93
teaching the course content M 93
tests in normal persons M 92
testing the mental ability M 92
terms of visual comfort M 92
terms of safety factors M 92
terms of options granted M 92
terms of actual operating M 92
tends to remain obscure M 92
tends to lessen respect M 92
tends to further enhance M 92
tends to assert himself M 92
terms of standing because M 90
terms of simple location M 90
terms of public respect M 90
terms of mutual defence M 90
terms of formal position M 90
terms of common history M 90
terms of another analogy M 90
terms of annual figures M 90
tends to regard religion M 90
tends to become nervous M 90
tends to absorb everything M 90
tests of spoken language M 88
tests of manual ability M 88
testing the models against M 88
terms of something similar M 88
terms of school quality M 88
terms of public worship M 88
terms of larger systems M 88
terms of future studies M 88
terms of formal decision M 88
terms of direct capital M 88
terms of client service M 88
terms of chosen criteria M 88
terms of actual material M 88
tends to remain between M 88
terms of market demands M 87
tends to become central M 87
terms of simple justice M 86
terms of public protest M 86
terms of battle tactics M 86
terms of actual product M 86
tends to reduce operating M 86
tends to become cynical M 86
terms of building material M 85
tests to assess overall M 84
terms of visual culture M 84
terms of stated criteria M 84
terms of direct operating M 84
terms of another religion M 84
terms of actual program M 84
tends to remain private M 84
tends to reduce student M 84
tends to ensure success M 84
tends to detach himself M 84
tends to define herself M 84
tends to affect certain M 84
teaching the course because M 84
texts in modern editions M 82
terms of future results M 82
terms of fairly general M 82
terms of existing research M 82
terms of ethical criteria M 82
terms of building support M 82
terms of becoming dignity M 82
tends to measure everything M 82
teaching the poorer classes M 82
teaching of another language M 82
terms of simple material M 81
terms of greatly reduced M 81
terms of shared emotions M 80
terms of direct impacts M 80
terms of actual outcome M 80
terms of active members M 80
tends to remain faithful M 80
tends to regard society M 80
teaching is beyond question M 80
teaching in another country M 65
teaching in training schools M 57
terms he should propose M 56
testing to ensure quality M 55
teaching in modern schools M 54
terms of output current M 53
teaching in various subject M 52
testing to assess student M 51
teaching in summer schools M 48
terms of thought content M 47
tends to rotate outward M 45
tends to expand outward M 45
tends to slowly increase M 42
teaching of modern natural M 42
tests of thyroid function D 7223
teaching of modern foreign D 4714
tests of spatial ability D 3202
testing of nuclear devices D 2716
tends to become smaller D 2640
terms of modern science D 2556
teaching of creation science D 1843
tests of kidney function D 1621
teaching the french language D 1542
terms of dollar amounts D 1500
teaching of modern science D 1420
tests of verbal fluency D 1364
terms of actual behavior D 1356
terms of actual dollars D 1334
tends to become blurred D 1302
terms of sexual behavior D 1246
tends to become brittle D 1234
telling the cancer patient D 1107
terms of square footage D 1040
terms of modern physics D 730
terms of office expired D 712
terms of energy density D 675
terms of public welfare D 650
teaching at hunter college D 607
terms in nuclear science D 562
tends to remove national D 552
terms of modern warfare D 532
terms of existing treaties D 524
terms of spatial location D 522
terms of another variable D 499
tends to become sterile D 496
tests of nuclear devices D 486
terms of profit margins D 466
tests in tissue culture D 456
terms of shipping tonnage D 453
teaching the native language D 448
terms of atomic physics D 444
teased at school because D 444
terms of changed behavior D 430
terms of reducing poverty D 426
terms of public finance D 420
terms of formal schooling D 415
terms of animal behavior D 414
terms of charge density D 394
terms of animal welfare D 394
terms of policy outputs D 392
terms of binary features D 392
terms of recent history D 390
terms of formal features D 390
terms of matrix notation D 385
testing of thyroid function D 378
tends to detect perjury D 366
terms of section seventy D 365
terms of sexual pleasure D 350
tends to become diluted D 338
terms of career success D 336
testing of nuclear warheads D 328
tending to become smaller D 328
terms of direct foreign D 326
tempt or punish mortals D 321
tests of cardiac function D 320
terms of mental hygiene D 320
tense the future perfect D 319
terms of common features D 316
terms of sexual arousal D 315
tests of modern science D 306
teaching of mental hygiene D 306
tends to reduce friction D 304
terms of actual amounts D 300
tends to reduce exports D 300
terms of higher incomes D 298
terms of energy storage D 298
tending to become chronic D 298
tending to excite sedition D 296
terms of section fifteen D 294
terms of policy content D 294
tends to reduce genetic D 292
terms of modern medical D 288
tests of clotting function D 284
tempo of modern warfare D 284
terms of memory storage D 280
teaching on sexual matters D 278
terms of income forgone D 277
tends to become diffuse D 275
terms of export markets D 274
terms of miller indices D 273
terms of tension between D 272
terms of policy choices D 272
terms of output voltage D 272
terms of learner behavior D 270
terms of events occurring D 270
terms of atomic weights D 270
teaching of french language D 268
tests in modern foreign D 266
tending to become shorter D 266
terms of teacher behavior D 262
terms of equity capital D 262
tends to become flatter D 257
terms of feudal service D 256
terms of ethical behavior D 254
terms of section thirteen D 252
terms of carbon content D 252
terms of design features D 251
terms of income poverty D 250
terms of annual revenue D 248
testing in singular equation D 244
telling of family stories D 243
tells the police officer D 240
terms of verbal behavior D 238
tends to become clogged D 238
terms of career choices D 236
terms of output forgone D 235
terms of recent research D 228
terms of deviant behavior D 228
tends to become steeper D 228
tending to become general D 228
tests of aerobic fitness D 226
terms of sexual freedom D 226
terms of policy measures D 224
terms of future dollars D 224
terms of treason doubled D 220
telling the police officer D 220
testing the neural network D 216
terms of weapons systems D 216
terms of thermal comfort D 214
tenet of modern science D 214
tends to expand rapidly D 214
tends to become concave D 214
tends to become shallow D 213
teaching the target language D 213
terms of changes occurring D 212
tends to infuse poetical D 212
telling the police everything D 212
testing of atomic devices D 206
tends to become socially D 204
teaching of french history D 204
testing by hybrid capture D 202
terms of sexual function D 202
tends to reduce variation D 202
terms of native language D 200
terms of coupling between D 200
terms of animal protein D 200
teaching of sexual hygiene D 200
terms of policy debates D 198
terms of sexual imagery D 196
tests to detect genetic D 194
terms of section sixteen D 194
teaching the polish language D 194
terms of sexual violence D 190
terms of labour markets D 188
tends to become erratic D 186
terms of number density D 184
terms of family welfare D 184
terms by direct popular D 184
terms of nuclear physics D 180
terms of target markets D 178
terms of native ability D 178
terms of income effects D 178
terms of market economy D 176
terms of global welfare D 176
terms of severe censure D 174
terms of client behavior D 174
tends to become rapidly D 172
tests of muscle function D 168
terms of neural network D 166
terms of export credits D 166
terms of erosion control D 166
tends to reduce imports D 166
telling me horror stories D 166
tests of native ability D 164
testing the policy against D 164
terms of various treaties D 164
teaching of modern physics D 162
terms of shared features D 160
terms of target language D 158
terms of column vectors D 158
teaching in parish schools D 157
terms of vector notation D 156
terms of various indices D 156
terms of soviet foreign D 156
terms of silver dollars D 156
terms of another national D 156
tends to enmity against D 156
tends to become sharper D 156
tends to arouse anxiety D 156
teaching of occult science D 156
terms of various features D 154
terms of partial charges D 154
tents of savage hunters D 154
tends to become smoother D 154
telling in simple language D 154
texts on nuclear physics D 152
terms of sodium hydrate D 152
terms of reducing overall D 152
terms of policy towards D 152
terms of global markets D 152
terms of double taxation D 152
terms of cardiac function D 152
tests of airway function D 150
testing of weapons systems D 150
terms of narrow national D 150
terms of acreage planted D 150
telling the senate foreign D 150
testing of nuclear weaponry D 148
terms of sexual assault D 148
terms of public revenue D 148
terms of public acclaim D 148
terms of income support D 148
tells the window manager D 148
telling the family members D 148
teaching of recent history D 148
terms of spatial position D 146
terms of carbon fixation D 146
tending to become uniform D 145
terms of visual features D 144
terms of oxygen content D 144
terms of glacial history D 144
terms of future behavior D 144
terms of atomic numbers D 144
terms of another statute D 144
tending to attack religion D 144
terms of sexual prowess D 142
terms of native speakers D 142
terms of annual amounts D 142
tents or covering against D 142
testing in stress urinary D 140
terms of nuclear reactions D 140
terms of normal behavior D 140
terms of income sources D 140
terms of direct medical D 140
tells us little regarding D 140
tests to measure hormone D 138
tends to reduce national D 138
tends to hinder mankind D 138
telling me strange stories D 138
tests of spelling ability D 136
tending to vilify private D 136
tense or aspect markers D 135
terms the mental horizon D 134
terms of vector addition D 134
terms of policy outcome D 134
terms of office between D 134
teaching of polish history D 134
teaching in ghetto schools D 133
terms of values derived D 132
terms of sulfur content D 132
terms of special features D 132
terms of spatial variation D 132
terms of readily measured D 132
terms of random variation D 132
terms of drinking behavior D 132
terms the tension between D 131
terms of reducing anxiety D 130
teaching of native language D 130
terms of revolt against D 128
terms of office beginning D 128
terms of family incomes D 128
terms of actual tonnage D 128
tenet of soviet foreign D 128
tends to excite lustful D 128
terms of sexual content D 127
tests of sexual behavior D 126
terms of purely national D 126
terms of equity between D 126
terms of defining features D 126
terms of cropping pattern D 126
tends to incite bigotry D 126
telling the secret service D 126
telling of sexual stories D 126
testing the cruise missile D 124
terms of ovarian function D 124
terms of learned behavior D 124
terms of export revenue D 124
tends to become coarser D 124
teaching in french schools D 123
terms of angular deviation D 122
tending to modify organic D 122
tempt the fickle goddess D 122
tells the senate foreign D 122
telling the family history D 122
testing of school athletes D 120
terms of sexual conduct D 120
terms of muscle function D 120
terms of atomic percent D 120
tenths of modern science D 120
tends to recoil outward D 120
tends to mediate between D 120
terms of recent studies D 118
tends to reduce welfare D 118
tends to become blunted D 118
testing of muscle function D 116
terms of rotating vectors D 116
terms of prices charged D 116
terms of policy process D 116
terms of market behavior D 116
tends to expand radially D 116
tends to become secular D 116
tends to become endemic D 116
tends to arouse sympathy D 116
terms of copper content D 115
texts on public finance D 114
terms of models derived D 114
terms of earlier treaties D 114
terms of dollar profits D 114
tends to become charged D 114
texts of secret treaties D 112
tests of mental agility D 112
testing of plumbing systems D 112
terms of visual stimuli D 112
terms of octane numbers D 112
tests on tissue samples D 110
terms of sexual division D 110
terms of former treaties D 110
terms of common decency D 110
tends to invade locally D 110
terms of sexual jealousy D 108
terms of sexual exchange D 108
terms of bodily behavior D 108
tends to reduce fatigue D 108
tending to become extinct D 108
teaching of polish language D 108
terms of vector diagrams D 106
terms of system behavior D 106
terms of modern notation D 106
terms of income derived D 106
terms of french history D 106
terms of debate regarding D 106
tenet of modern physics D 106
tends to become rhythmic D 106
terms of thermal emission D 104
terms of neural systems D 104
terms of larger groupings D 104
terms of export volumes D 104
terms of defect density D 104
terms of actual warfare D 104
tends to insure against D 104
telling in bright letters D 104
teaching of school science D 104
texts on survey research D 102
tests of simple sensory D 102
terms of simple sensory D 102
terms of sexual potency D 102
terms of random mutation D 102
terms of morbid anatomy D 102
terms of feature vectors D 102
terms of common welfare D 102
terms of cancer control D 102
tends to switch between D 102
tends to revolt against D 102
terms of nuclear warheads D 100
terms of bodily function D 100
terms in recent decades D 100
tends to become stiffer D 100
tending to become counter D 100
teaching the nations lessons D 100
terms of modern national D 98
terms of debate shifted D 98
tending to become bullies D 98
tends to become suspect D 97
tests of thyroid hormone D 96
terms of status position D 96
terms of neural process D 96
terms of future careers D 96
terms of another science D 96
tenor of scotch boyhood D 96
tends to become clouded D 96
tends to arouse emotions D 96
tending to become corrupt D 96
terms of trench warfare D 94
terms of secret treaties D 94
terms of public financing D 94
terms of policy reforms D 94
terms of neural pathways D 94
terms of mediating between D 94
terms of income classes D 94
tends to revert towards D 94
tends to reduce tensions D 94
teaching of proper behavior D 94
terms of modern quantum D 93
terms of dollar returns D 93
telling of coarse neglect D 93
terms of public behavior D 92
terms of nuclear warfare D 92
terms of future national D 92
terms of building bridges D 92
terms of angular momenta D 92
teaching on infant baptism D 91
terms of thermal effects D 90
terms of office usually D 90
terms of office because D 90
terms of neural function D 90
terms of carbon storage D 90
tending to become blurred D 90
tempo of modern society D 90
telling of former lodgers D 90
tests of infant behavior D 88
terms of influx control D 88
terms of french national D 88
terms of bodily reactions D 88
terms of annual tonnage D 88
terms of annual incomes D 88
terms of actual musical D 88
tends to elicit similar D 88
tends to become national D 88
tends to become dilated D 88
tempt the aspiring thoughts D 88
telling on another occasion D 87
texts in public finance D 86
texts by native speakers D 86
tests of nuclear warheads D 86
terms of sexual symbols D 86
terms of office limited D 86
tents of bright colours D 86
tends to stifle creative D 86
tends to induce fatigue D 86
tends to become fixated D 86
telling of sacred stories D 86
teaching in reducing student D 86
terms of status symbols D 84
terms of income between D 84
terms of higher exports D 84
terms of formal courses D 84
terms of dollar figures D 84
terms of dipole moments D 84
terms in office because D 84
tending to excite discord D 84
terms of simple physics D 82
terms of energy budgets D 82
terms of budget outlays D 82
tenor of former history D 82
tends to become kinetic D 81
testing the aqueous solution D 80
terms of sexual desires D 80
tends to settle rapidly D 80
teaching the tender creature D 80
teaching of school hygiene D 80
teaching in soviet schools D 60
tells the client browser D 58
teaching in graded schools D 57
tending to further increase D 55
teaching in summer sessions D 53
teaching in school science D 51
testing the double jeopardy D 50
terms of office overlap D 50
terms of leakage current D 49
tense the simple present D 49
telling of simple stories D 49
teaching in dental schools D 47
tests to detect malingering D 46
terms of building rapport D 46
tends to become plastic D 46
tents of tanned buffalo D 42
tends to become tighter D 42
teaching in recent decades D 42
