so the united states M 24798
so we should expect M 9543
so the matter rested M 5592
so he turned around M 4296
so the vicious circle M 3646
so he looked around M 3306
so the matter stands M 2897
so we turned around M 2547
so is another matter M 2484
so the winter passed M 2400
so the actual number M 2273
so the summer passed M 2166
so it seemed likely M 1941
so he walked around M 1566
so he always called M 1555
so we walked around M 1491
so the teacher should M 1482
so we should always M 1416
so it should always M 1380
so we passed through M 1363
so it passes through M 1357
so we looked around M 1279
so we walked through M 1196
so he walked slowly M 1097
so he walked through M 1018
so the little fellow M 1002
so the younger brother M 995
so he passed through M 984
so he stayed behind M 959
so the entire family M 934
so the answer should M 918
so he turned toward M 889
so he walked across M 874
so it should remain M 860
so it always seemed M 856
so it became obvious M 838
so it seemed better M 801
so on almost without M 794
so the system should M 774
so no matter whether M 769
so the immune system M 767
so of course nobody M 767
so we should accept M 759
so the church should M 729
so the latter should M 715
so we walked across M 710
so as thereby neither M 668
so the greater number M 638
so the actual amount M 620
so it appears likely M 614
so he walked toward M 610
so the entire system M 597
so the moment passed M 580
so it seemed obvious M 560
so we should regard M 550
so we should choose M 542
so we joined forces M 522
so we should assume M 516
so we should neither M 508
so the matter passed M 501
so on through various M 498
so it seemed strange M 497
so it seemed almost M 488
so the teacher turned M 479
so the choice should M 479
so to remain silent M 478
so on through number M 476
so the spirit lifted M 468
so he issued orders M 466
so he bought another M 457
so the client should M 455
so the crisis passed M 452
so we should follow M 448
so it should become M 446
so the entire amount M 436
so to decide whether M 435
so we should reject M 428
so he looked through M 428
so the output signal M 422
so he merely smiled M 420
so the unborn person M 398
so it should follow M 384
so he turned instead M 384
so it became almost M 382
so the divine spirit M 379
so if anyone should M 376
so it should hardly M 368
so he stayed silent M 363
so the church became M 360
so it became common M 354
so the result should M 353
so we should beware M 351
so the figure itself M 351
so in united states M 350
so to modify existing M 349
so the obvious answer M 347
so the little family M 346
so it hardly seemed M 346
so we walked slowly M 344
so it almost seemed M 344
so we wonder whether M 336
so on through almost M 336
so he simply turned M 334
so the public school M 330
so the founding fathers M 322
so the safest course M 313
so the school system M 311
so he always looked M 310
so he thought better M 308
so the second edition M 304
so in another minute M 304
so to behave myself M 303
so we looked through M 300
so the simple answer M 299
so it became something M 298
so the market supply M 296
so is almost always M 295
so he simply walked M 291
so we parted without M 287
so if anyone wanted M 287
so the latter became M 282
so the former should M 282
so we always called M 280
so to choose always M 274
so the matter should M 273
so the school should M 270
so on through twenty M 270
so it passed through M 270
so it almost always M 270
so he joined forces M 270
so the writer should M 265
so in greater detail M 264
so he merely looked M 264
so he hardly looked M 262
so we should return M 256
so to adjust itself M 255
so the disease spreads M 255
so the circle closes M 248
so it should happen M 248
so the energy stored M 247
so the autumn passed M 245
so we worked through M 241
so if someone wanted M 241
so we should become M 240
so the result proved M 238
so of course thought M 237
so the second clause M 234
so the binary number M 232
so the matter seemed M 231
so he needed someone M 231
so we walked beside M 228
so we should listen M 226
so the little prince M 226
so he called another M 226
so the market demand M 224
so the eldest brother M 224
so it offers itself M 224
so it became harder M 224
so he should always M 224
so the labour market M 223
so the wisest course M 222
so my little brother M 222
so it seemed pretty M 222
so the maiden cities M 218
so the system worked M 216
so the second brother M 216
so it proved indeed M 216
so the object appears M 214
so is further proved M 212
so the church teaches M 210
so the public thought M 207
so the design should M 207
so the public should M 205
so to another person M 204
so the doctor should M 204
so we bought another M 203
so the second factor M 199
so the matter became M 199
so my little sister M 199
so we passed safely M 198
so the divine nature M 198
so the second person M 197
so he became famous M 197
so to return through M 196
so the obvious choice M 196
so it looked almost M 196
so the teacher called M 194
so the profit margin M 194
so the church itself M 194
so the proper ordering M 193
so the affair rested M 193
so the strain energy M 191
so in lesser degree M 190
so the twelve called M 189
so the doctor thought M 189
so the dreamer gathers M 188
so he should remain M 188
so he changed course M 188
so in vainly pursuing M 186
so he pushed through M 186
so the entire burden M 184
so he stands before M 184
so he should pursue M 184
so the middle states M 182
so of pretty direct M 182
so he sought advice M 182
so by another person M 182
so he walked beside M 181
so the seasons passed M 180
so my younger brother M 180
so at various points M 180
so the doctor called M 178
so the common wisdom M 177
so he worked harder M 177
so the record states M 176
so in earlier periods M 176
so the plants should M 175
so we turned toward M 174
so the reaction should M 174
so an effort should M 174
so we walked toward M 172
so he sought another M 169
so it looked pretty M 168
so the report stated M 167
so on without number M 166
so he always seemed M 166
so it seemed before M 164
so it always appears M 164
so he should become M 164
so he created mothers M 164
so the disease should M 162
so the actual values M 162
so he waited another M 162
so the larger number M 161
so the volume should M 159
so the second column M 159
so no further mention M 159
so to escape greater M 158
so the former caused M 158
so on upward through M 158
so he simply called M 156
so in deciding whether M 155
so the speaker should M 154
so we merely walked M 150
so we changed course M 150
so to narrow itself M 150
so the younger sister M 150
so the family thought M 150
so the actual figure M 150
so he simply smiled M 150
so we slowly walked M 148
so we should hardly M 148
so the family should M 148
so the energy needed M 147
so is simple enough M 144
so we humans accept M 143
so it points toward M 142
so is obvious enough M 142
so in another aspect M 142
so we should arrive M 140
so the second number M 140
so the member states M 140
so the ethical system M 140
so it passed without M 140
so we almost always M 139
so to attend school M 139
so the letter closed M 139
so the direct effect M 139
so the safety factor M 138
so the person should M 138
so the modern spirit M 138
so my deeper belief M 138
so the entire building M 137
so the visual system M 136
so the hermit called M 136
so it relies heavily M 136
so he rushed through M 135
so the common lights M 134
so on through another M 134
so it always looked M 134
so he thought proper M 134
so he simply waited M 134
so he reached across M 134
so the better fitted M 133
so he stayed around M 133
so the worker should M 132
so the system itself M 132
so the double number M 132
so he almost always M 132
so it offers little M 131
so we needed something M 130
so the report states M 130
so the family legend M 130
so we should remain M 128
so the phrase should M 128
so in another moment M 128
so we should simply M 126
so the lowest energy M 126
so the actual output M 126
so he should suffer M 126
so be justly called M 126
so no further changes M 125
so we should prefer M 124
so the parent should M 124
so the little maiden M 124
so the scheme failed M 123
so we should select M 122
so the affair passed M 122
so no serious damage M 122
so no choice before M 122
so it seemed through M 122
so he always wanted M 122
so the building itself M 121
so the school became M 120
so the issues raised M 120
so in public before M 120
so he relied heavily M 120
so on second thought M 119
so we stayed inside M 118
so the sample should M 118
so the effect occurs M 118
so the actual effect M 118
so it remain without M 118
so the family stayed M 117
so we waited around M 116
so we should define M 116
so the future looked M 116
so is always unable M 116
so in another letter M 116
so the entire school M 115
so to extend itself M 114
so the battle begins M 114
so it became public M 114
so is little gained M 114
so is entire nature M 114
so in nature itself M 114
so in common speech M 114
so he poured another M 114
so my brother called M 113
so to govern itself M 112
so the obvious course M 112
so he taught school M 112
so the stored energy M 111
so the expert system M 111
so he wanted another M 111
so he hunted around M 111
so the second member M 110
so the output should M 110
so he smiled gently M 110
so he slowly walked M 110
so the number should M 108
so the letter stated M 108
so the excess demand M 108
so on through mutual M 108
so no person should M 108
so in another person M 108
so the reaction occurs M 107
so we should merely M 106
so the market should M 106
so or merely seemed M 106
so is something higher M 106
so is placed before M 106
so he needed something M 106
so he always walked M 106
so at various periods M 106
so we fairly walked M 105
so we simply assume M 104
so to elapse before M 104
so the little wooden M 104
so the effect should M 104
so the animal should M 104
so it seemed proper M 104
so he became afraid M 104
so as almost wholly M 104
so we hardly notice M 103
so to reduce prices M 103
so to defend itself M 102
so the various groups M 102
so the second course M 102
so the proper amount M 102
so the initial reaction M 102
so if someone offers M 102
so he fought twenty M 102
so the system became M 101
so the papers stated M 101
so the measure failed M 101
so the liquid barely M 101
so to become further M 100
so the pupils should M 100
so the entire weight M 100
so it sounds better M 100
so in another manner M 100
so he stands lighting M 100
so he should decide M 100
so he almost missed M 100
so the initial values M 99
so the actual result M 99
so the second lesson M 98
so the limiting factor M 98
so the learned doctor M 98
so the initial effect M 98
so in secret without M 98
so by various methods M 98
so the camera should M 97
so we should reduce M 96
so the public safety M 96
so the actual impact M 96
so it seemed highly M 96
so it clearly appears M 96
so it almost looked M 96
so he waited through M 96
so he should accept M 96
so he looked across M 96
so the latter states M 94
so the honest public M 94
so the common belief M 94
so the actual volume M 94
so the actual cleansing M 94
so in greater measure M 94
so he opened another M 94
so the modern system M 93
so the family always M 93
so the damage caused M 93
so we always thought M 92
so to arrange itself M 92
so the speaker engaged M 92
so the second version M 92
so the second aspect M 92
so my oldest brother M 92
so in future without M 92
so he worked through M 92
so by causes beyond M 92
so the family doctor M 91
so the couple should M 91
so the building blocks M 91
so we should surely M 90
so the oldest brother M 90
so on without regard M 90
so my moment passed M 90
so it seemed wisest M 90
so it seemed hardly M 90
so it always became M 90
so in greater degree M 90
so he simply stayed M 90
so the honest fellow M 89
so the family became M 89
so the dreamer dreamed M 89
so we waited another M 88
so we stayed another M 88
so we pushed through M 88
so to defend myself M 88
so the wicked advice M 88
so the second choice M 88
so the little sister M 88
so in earlier stages M 88
so he stayed awhile M 88
so he should return M 88
so he joined another M 88
so he created another M 88
so by dividing itself M 88
so he pushed harder M 87
so we simply walked M 86
so we simply return M 86
so the pretty little M 86
so the moment before M 86
so the earnest become M 86
so the building should M 86
so on through twelve M 86
so it causes something M 86
so is clearly proved M 86
so in minute detail M 86
so he stayed hidden M 86
so the excess energy M 85
so we wander through M 84
so we simply ignore M 84
so the signal strength M 84
so the modern school M 84
so the latter turned M 84
so it should arrive M 84
so is fairly obvious M 84
so is another famous M 84
so he always thought M 84
so the letter should M 83
so the latest version M 83
so we should realize M 82
so we should almost M 82
so we became engaged M 82
so the planning system M 82
so the market prices M 82
so the entire creation M 82
so the colour changes M 82
so on through higher M 82
so it shaped itself M 82
so he showed little M 82
so he passed without M 82
so he hardly needed M 82
so we should obtain M 80
so we should mention M 80
so the report should M 80
so the entire effect M 80
so it became another M 80
so he walked before M 80
so he simply lifted M 80
so he placed before M 80
so he passes through M 80
so he merely filled M 80
so he became something M 80
so at various stages M 80
so the entire matter M 54
so he reached around M 54
so the latter appears M 52
so the record stands M 51
so the special forces M 50
so the circle closed M 50
so of course neither M 49
so we stayed behind M 47
so the latter thought M 47
so the letter states M 46
so to arrange duties M 45
so the person behind M 45
so the person inside M 44
so the latter picked M 44
so no reaction occurs M 44
so it hardly counts M 44
so the object itself M 43
so the divine wisdom M 43
so it seemed anyway M 42
so it always points M 42
so the visual effect M 41
so the vicious spiral M 41
so the second volume M 41
so the family member M 41
so we should travel M 40
so the teacher thought M 40
so the second winter M 40
so the higher wields M 40
so the united nations D 1247
so we become saints D 1024
so he merely nodded D 703
so we readily agreed D 688
so he simply nodded D 634
so he readily agreed D 596
so the atomic number D 572
so the public sector D 544
so the carbon dioxide D 497
so at higher levels D 464
so my friend struck D 449
so by public opinion D 444
so we should strive D 414
so the atomic weight D 359
so he sought refuge D 333
so the knight always D 325
so the second section D 319
so the potter formed D 312
so we struck across D 297
so the little tailor D 296
so to temper passion D 292
so he tiptoed across D 290
so he talked always D 290
so the energy levels D 285
so in public places D 278
so the surgeon should D 275
so the sunset soothed D 260
so the fossil record D 257
so the parish priest D 255
so the thought struck D 242
so the dinner passed D 242
so the little revenge D 236
so we changed places D 232
so the archer symbol D 226
so the income effect D 217
so my driver pulled D 214
so the island loomed D 208
so on without stopping D 208
so the entire series D 198
so the melody floats D 194
so the blushing little D 194
so the island already D 188
so the thermal energy D 184
so the artist simply D 182
so the secret police D 181
so the soviet leaders D 176
so is better suited D 176
so the french thought D 171
so at various levels D 170
so the native guides D 168
so is public opinion D 166
so he stared upward D 164
so is ideally suited D 162
so the evenings closed D 156
so the shower passed D 154
so the cardiac output D 154
so the nuclear family D 152
so we talked softly D 150
so the dipole moment D 148
so the profit motive D 145
so the dollar amount D 144
so he struck across D 144
so the french colors D 142
so the french called D 141
so the farmer should D 138
so it browns evenly D 138
so in various places D 136
so the debating inside D 133
so the diction always D 132
so as fiscal agents D 132
so the sequel proved D 131
so the chilling effect D 128
so the findings should D 126
so at higher speeds D 126
so the seller should D 124
so we jumped aboard D 123
so in public opinion D 122
so the office itself D 121
so in thyself thyself D 121
so we readily assure D 118
so the higher styles D 118
so the greater portion D 118
so the artist should D 118
so the actual extent D 118
so he jumped through D 118
so we plowed around D 114
so the record styles D 114
so the higher levels D 113
so in timely fashion D 112
so the second player D 110
so the finest curves D 106
so he sailed without D 106
so the driver pulled D 105
so the batter covers D 105
so the little rabbit D 104
so the entire section D 104
so on through scores D 104
so on through dozens D 102
so by mutual insult D 102
so to arouse public D 101
so the oxygen supply D 101
so the police called D 100
so the batter spreads D 100
so the stroke volume D 98
so the family packed D 98
so of tinted silken D 98
so to acquit myself D 97
so we talked standing D 96
so the french pushed D 96
so he simply stared D 96
so he called drinking D 96
so the dosage should D 94
so the police should D 93
so the amiable couple D 93
so he ducked behind D 92
so of earlier courts D 91
so the various genera D 90
so the reapers sought D 90
so the feudal system D 90
so my terror changed D 89
so to locate myself D 88
so the player should D 88
so the morbid terror D 88
so the learned voters D 88
so the courts should D 88
so we talked through D 86
so to deport myself D 86
so to behave thyself D 86
so the bottle should D 86
so the autumn rolled D 86
so the allies became D 86
so he talked instead D 86
so he always stared D 86
so the virgin became D 84
so the opinion closes D 84
so the armies joined D 84
so he pleaded guilty D 84
so the knight thought D 82
so the common opinion D 82
so he peered through D 82
so the senate passed D 80
so the evenings passed D 80
so the driver should D 80
so the bishop called D 80
so he sighed deeply D 80
so the police thought D 64
so the french troops D 51
so he lagged behind D 51
so the modern artist D 50
so the middle section D 50
so the silver dollar D 47
so the makeup artist D 47
so an octave struck D 46
so he feebly braves D 45
so the parish church D 43
so the whites showed D 42
so the public opinion D 42
so the policy makers D 42
so the french forces D 42
so the sacred office D 41
