since the twelfth century M 33710
since the seventh century M 15596
since the second century M 10867
sitting or standing position M 8520
signs of mental illness M 8129
sixty to ninety minutes M 4472
since the second quarter M 4241
sixty to eighty thousand M 3426
since the latter depends M 2270
sixty to eighty percent M 2102
signs of serious illness M 1889
sixty or eighty thousand M 1791
since it became evident M 1716
since the public schools M 1624
since the latter implies M 1524
since the entire process M 1474
since the latter usually M 1432
sixty to ninety seconds M 1312
signs of serious trouble M 1296
since we worked together M 1232
since the divine essence M 1214
since the reaction between M 1206
since the parent company M 1144
since the choice between M 1114
since the second congress M 1074
since the latter process M 1016
sitting to standing position M 1010
since the initial studies M 994
since the forest service M 982
since the middle sixties M 952
since the earlier editions M 950
since the middle fifties M 942
since the output current M 926
since the middle classes M 924
since the matrix element M 922
sitting or kneeling position M 900
since the volume fraction M 858
since we parted company M 850
sixty to eighty persons M 808
sixty or eighty persons M 790
since the energy content M 789
since the finite element M 765
since the starting material M 764
since the public service M 760
since the latter require M 742
since he thought himself M 742
since the injury assumed M 722
signs of reaction against M 714
since the effect depends M 696
since the result depends M 686
since it rarely happens M 684
since the earlier studies M 662
since he showed himself M 662
since the border between M 652
since the planning process M 650
since it greatly reduces M 650
sixty to ninety percent M 640
since the latter contain M 639
since the charge against M 636
since the answer depends M 632
since the energy released M 614
since the second equation M 600
since the forces between M 598
since the family members M 588
since the former implies M 586
since the latter remains M 568
sites of public buildings M 564
sixty to eighty members M 546
sitting or standing upright M 539
since the design process M 538
since the reaction product M 536
since the entire purpose M 532
since the actual process M 528
since the spaces between M 526
since the former usually M 524
since the disease process M 516
since the reform process M 512
since the entire country M 510
since the margin between M 508
since it seldom happens M 508
since the events related M 502
since the seventh congress M 500
sixty to ninety thousand M 492
since the training program M 492
signs of future trouble M 490
since the initial contact M 488
since the entire surface M 486
since the stated purpose M 482
since the forces exerted M 482
since it seemed certain M 482
signs of strain between M 482
since the fighting started M 480
since we became friends M 478
since the various aspects M 478
since the public library M 476
sites of origin include M 472
sixty or ninety minutes M 454
since the latter decades M 450
since the fighting stopped M 448
signs of stress include M 444
since the volume remains M 440
since the reaction mixture M 440
signs of mental weakness M 440
since the entire program M 434
since the reaction against M 430
since the various species M 428
since the scheme started M 428
since the battle started M 428
since the former depends M 422
since the disease usually M 422
since the demand function M 420
since the battle between M 414
since it always remains M 414
signs of severe illness M 414
since the middle decades M 410
since by common consent M 410
since the latter include M 408
since the authors believe M 408
since the source material M 403
since the amount realized M 394
sites of immune complex M 393
since the volume element M 388
since the initial decision M 388
since the second element M 384
since the energy barrier M 384
since he called himself M 382
sitting or standing quietly M 379
since the latter involve M 376
since it already existed M 376
since the secret service M 375
since the existing species M 374
since the energy equation M 374
since the direct current M 373
since we played together M 370
since the initial position M 370
since the system started M 368
since the latter appeared M 368
since the initial success M 368
since the debate between M 366
sixty to eighty degrees M 358
since the energy depends M 356
since the latter becomes M 354
since the various factors M 350
since the triple alliance M 350
since the latter concept M 348
since the latter provide M 344
since the initial research M 342
since the latter species M 338
since the energy balance M 338
since the initial capital M 334
since it occurs between M 332
since the crisis started M 324
since the profit function M 318
since the former editions M 318
since the entire project M 318
signs of severe anxiety M 316
signs of mutual respect M 314
since the proper function M 312
since the letter arrived M 312
since the latter country M 312
since the entire passage M 312
since an entire chapter M 312
since the school started M 310
since the disease affects M 310
since the latter assumes M 306
since my sister married M 304
since it always implies M 304
since the spoken language M 298
since the entire history M 296
since the ground surface M 294
since the entire concept M 290
since the starting current M 289
since the various members M 288
sixty to ninety degrees M 286
sitting or standing together M 286
signs of serious weakness M 286
sitting at tables exchanging M 284
since the latter affects M 284
since no useful purpose M 280
since the direct effects M 278
since the actual numbers M 278
since the latter demands M 276
since it greatly affects M 276
sixty to eighty minutes M 272
since in modern society M 272
since the latter entails M 271
since the amount present M 271
since the states general M 270
since so little research M 268
sitting in church listening M 267
since the annual average M 266
since the crucial question M 260
since the alarming message M 260
since the system remains M 258
since the second marriage M 256
since the latter problem M 256
since the latter carries M 256
signs of mental decline M 256
signs of mental trouble M 254
sitting in gloomy silence M 252
since the former contain M 252
since it merely implies M 252
since the latter applies M 250
since the system depends M 248
since the return address M 248
since he became emperor M 246
since the latter refused M 244
sixty or ninety seconds M 242
since the latter possess M 242
since the modern concept M 240
since the former require M 240
since the answer choices M 240
since the second question M 238
since it clearly implies M 238
since the latter results M 236
since we already suppose M 234
since the various records M 234
since the latter function M 234
since the earlier decision M 234
since the attack started M 232
since it appears certain M 232
since it became extinct M 231
since it should provide M 230
since it seemed evident M 230
since it neither implies M 230
signs of serious decline M 230
signs of public sympathy M 230
since the entire problem M 228
since the reaction depends M 226
signs of public support M 224
since the annual increase M 222
since it appears closely M 222
since the record company M 220
since it became subject M 220
since the earlier debates M 218
signs of disease include M 218
signs of second thoughts M 216
since the actual increase M 214
since the initial solution M 212
since in another passage M 212
since he worked himself M 212
signs of future success M 212
since the weight function M 210
since the system becomes M 210
since the causal relation M 210
since the latter equation M 208
since we already possess M 206
since the parent material M 206
since the energy carried M 206
since the battle against M 206
signs of strain appeared M 206
since the entire content M 203
since the normal function M 200
since the common element M 198
since the latter extends M 196
since the second process M 194
sitting up without support M 190
since the reform started M 190
since the energy exchange M 190
since as already pointed M 190
since the system returns M 188
signs of inward trouble M 188
since the normal position M 186
since the disease attacks M 186
since it offers several M 186
since the larger society M 184
since it thereby becomes M 184
signs of disease appeared M 182
since the sacred writers M 180
sixty or eighty members M 178
since the failed attempt M 174
since he fought against M 174
signs of future promise M 174
sides of streams capable M 174
since the various parties M 172
since the former include M 172
since the active material M 172
sitting or standing against M 171
sites of direct contact M 170
since the second council M 170
since the latter follows M 170
since the middle passage M 168
since the meetings between M 168
since the former involve M 168
since the earlier decades M 168
since it groups together M 168
since the latter suffers M 167
since the school library M 166
since the sampling process M 166
since the poorer classes M 166
since the latter reflect M 166
since the former provide M 166
since the choice depends M 166
since it rarely exceeds M 166
since it already extends M 166
since he calmly retired M 166
signs of various diseases M 166
since we served together M 162
since the person receiving M 162
since the actual results M 162
since it should include M 162
sites of former buildings M 160
since the various classes M 160
since the reform program M 160
since the middle becomes M 160
since the former process M 160
sitting in another machine M 156
since the latter relates M 156
since the crucial element M 156
since the server started M 154
since it seemed logical M 154
since the latter reduces M 152
signs on public buildings M 152
since the younger members M 150
since the twelfth congress M 150
since the decade following M 150
since on another occasion M 150
since he wished finally M 150
signs of further trouble M 150
since we walked together M 148
since the actual surface M 148
since it gathers together M 148
since he turned sixteen M 148
since the latter current M 147
sites of bleeding include M 146
since we neither believe M 146
since the former permits M 146
since the former decision M 146
since the family arrived M 146
since the crossing between M 146
since it mostly happens M 146
since the thought process M 144
since the sudden embrace M 144
since the latter measures M 144
since it occurs outside M 144
since it guards against M 144
signs of crisis appeared M 144
sitting in another country M 143
since the manner wherein M 142
since the causal factors M 142
since it appears evident M 142
since he already enjoyed M 142
since the latter carried M 141
sitting at tables outside M 140
since the initial efforts M 140
since the camera records M 140
since it stands between M 140
signs in public buildings M 140
since the famous victory M 138
since the actual figures M 138
signs of anyone following M 138
since the former relates M 137
signs of becoming extinct M 137
since the forces applied M 136
since he allows himself M 136
since the latter claimed M 135
since the prince himself M 134
since the little dispute M 134
since the foster parents M 134
since no serious attempt M 134
sitting or standing outside M 133
sixty to eighty seconds M 132
since the output depends M 132
since the limiting current M 132
since the fellow entered M 132
since it further reduces M 132
sides of public buildings M 132
sitting at tables covered M 130
since the powers granted M 130
since no further increase M 130
since he parted company M 130
since the latter offered M 129
since the initial current M 129
since the public benefit M 128
since the latter question M 128
since the initial passage M 128
signs of severe general M 128
sides on public measures M 128
sites of former temples M 126
since the latter figures M 126
since the import content M 126
since he proved himself M 126
since he always carried M 126
signs of severe chronic M 126
sitting or standing balance M 125
since the latter entered M 125
since the entire subject M 125
since it allows maximum M 125
since the object towards M 124
since it always happens M 124
signs of mental failure M 124
signs of disease because M 124
since the writer himself M 122
since the latter produce M 122
since the latest revision M 122
since the entire question M 122
since it greatly reduced M 122
signs of something unusual M 122
signing the triple alliance M 122
since the report appeared M 120
since the course started M 120
since it occurs equally M 120
since he turned thirteen M 120
signs of spoken language M 120
sites of injury include M 118
since the latter position M 118
since the actual outcome M 118
since my second marriage M 118
since it thereby removes M 118
since it should contain M 118
since it always follows M 118
since it always depends M 118
since in nature everything M 118
signs of another language M 118
since we assume perfect M 116
since the voyage started M 116
since the second chapter M 116
since the result follows M 116
since the person himself M 116
since the market reforms M 116
since the latter consist M 116
since the higher classes M 116
since the changes brought M 116
since it exists outside M 116
signs of public concern M 116
sixty or eighty minutes M 114
sites of immune reactions M 114
since the slight increase M 114
since the earlier versions M 114
since the church service M 114
since it merely decides M 114
signs of favour towards M 114
since the actual current M 113
since the various sources M 112
since the source function M 112
since the modern revival M 112
since the latter solution M 112
since the higher members M 112
since the former results M 112
since the former measures M 112
since the divine persons M 112
sides by greatly superior M 112
since the rights granted M 110
since the obvious purpose M 110
since the labour victory M 110
since the initial increase M 110
since the former affects M 110
since the energy function M 110
since it covers several M 110
signs of greater freedom M 110
signs in public schools M 110
since to better himself M 108
since the various measures M 108
since the second members M 108
since the latter exhibit M 108
since the initial request M 108
since the attack against M 108
since the amount claimed M 108
signs of hatred towards M 108
since the opposing parties M 106
since the object desired M 106
since the excess profits M 106
since the actual decision M 106
since my twelfth birthday M 106
since my letter written M 106
since he became general M 106
signs of further increase M 106
signs of common descent M 106
signs of becoming stronger M 106
since the various systems M 104
since the second crusade M 104
since the random effects M 104
since the object remains M 104
since the normal process M 104
since the latter material M 104
since the latter enjoyed M 104
since the latter differs M 104
since the entire network M 104
since the direct product M 104
since it always results M 104
signs of various degrees M 104
since the printing process M 102
since the disease appeared M 102
since the debate started M 102
since the appeals division M 102
signs of visual neglect M 102
signs of serious concern M 102
signs of family violence M 102
sides of wooden buildings M 102
since the latter started M 101
since the initial adoption M 100
since the future belonged M 100
since it worked against M 100
since it merely carries M 100
signs of emotion appeared M 100
sides of another example M 100
sitting or standing patient M 98
sitting or standing corpses M 98
sites of buried treasure M 98
since the various degrees M 98
since the second language M 98
since the primal problem M 98
since the latter focuses M 98
since the forces operating M 98
since the entire society M 98
since the actual credits M 98
since the actual control M 98
since no direct contact M 98
since it stands related M 98
since it occurs against M 98
since it merely reduces M 98
signs of stress related M 98
signs of further decline M 98
sides to almost everything M 98
since the random numbers M 96
since the matter depends M 96
since the matrix subject M 96
since the latter account M 96
since the initial episode M 96
since the initial attempt M 96
since the former applies M 96
since the divine purpose M 96
since the divine command M 96
since the church herself M 96
since it merely asserts M 96
since he looked forward M 96
signs of strain because M 96
signs of serious organic M 96
signs of school failure M 96
signs of disease usually M 96
since the sudden increase M 94
since the sampling fraction M 94
since the methods adopted M 94
since the learner himself M 94
since the latter existed M 94
since the client usually M 94
since the client started M 94
since it always returns M 94
since he limits himself M 94
signs of severe suffering M 94
since the actual average M 93
sitting at family prayers M 92
since we became masters M 92
since the worlds beginning M 92
since the supply function M 92
since the master himself M 92
since the initial problem M 92
since the former country M 92
since the actual content M 92
sides be treated equally M 92
sites of widely differing M 90
since the obvious solution M 90
since the letter written M 90
since the latter receive M 90
since the former carries M 90
since the bottom dropped M 90
since it occurs nowhere M 90
since he killed himself M 90
signs of reaction appeared M 90
signs of active listening M 90
since the plants require M 88
since the output signals M 88
since the normal pattern M 88
since the mission started M 88
since the entire complex M 88
since the energy emitted M 88
since the earlier volumes M 88
since the decade between M 88
since the charge remains M 88
since the border dispute M 88
since it simply implies M 88
since it merely relates M 88
since it clearly defines M 88
since it allows certain M 88
signs of serious neglect M 88
signs of serious division M 88
signs of becoming chronic M 88
since the initial screening M 87
since the volume increase M 86
since the second general M 86
since the record revealed M 86
since the matching concept M 86
since the latter element M 86
since the former reflect M 86
since the former demands M 86
since it should reflect M 86
since it gained control M 86
since it clearly implied M 86
since it arises because M 86
since it appears nowhere M 86
since it allows control M 86
since he turned himself M 86
since he greatly admired M 86
sides of narrow valleys M 86
sixty is twelve hundred M 84
sitting or standing between M 84
sites is greatly reduced M 84
since the stress pattern M 84
since the periods covered M 84
since the normal operating M 84
since the mental process M 84
since the groups studied M 84
since the former assumes M 84
since the charge exchange M 84
since the actual location M 84
since so little material M 84
since it should produce M 84
since it allows several M 84
since he became capable M 84
since he already abounds M 84
signs of special ability M 84
signs of mortal illness M 84
signs of disease develop M 84
signs in another language M 84
sitting in church together M 82
since the public utility M 82
since the matrix material M 82
since the liquid remains M 82
since the initial project M 82
since it offers certain M 82
signs of winter appeared M 82
since the various schools M 80
since the topics covered M 80
since the latter refuses M 80
since the latter company M 80
since the famous decision M 80
since it yields results M 80
since he always appeared M 80
since the latter permits M 68
since the latter assumed M 66
since the former entails M 59
since the latter allowed M 54
since the latter arrived M 49
since the signal current M 48
since the entire current M 48
since the latter denotes M 47
signs of disease present M 45
since the source current M 44
since the signal travels M 44
since the return current M 44
since the former remains M 44
since the latter defines M 43
since it stands outside M 41
sitting or standing figures M 40
signs of cardiac failure D 6954
since the output voltage D 3828
since the soviet invasion D 3106
since the wright brothers D 2718
sitting or standing posture D 1784
sitting or supine position D 1716
signs of revolt against D 1662
signs of sexual arousal D 1645
sitting on wooden benches D 1531
signs of tension between D 1474
since the surgeon general D 1353
since the energy density D 1328
since the middle thirties D 1220
since the initial reports D 1192
since the french invasion D 1152
since the random variable D 1136
since the charge density D 1076
signs of muscle weakness D 1020
signs of cardiac weakness D 1020
since the prince consort D 1003
since the coupling between D 964
since the atomic weights D 960
sixty to eighty dollars D 954
since the vernal equinox D 902
since the postal service D 870
since the scalar product D 842
since the oxygen content D 802
since the number density D 782
since the revolt against D 770
since the carbon content D 737
since the supply voltage D 736
sides of fabric together D 720
sixty or eighty barrels D 666
since the tension between D 666
signs of sexual assault D 648
since the charging current D 644
since the vector product D 603
signs of kidney failure D 594
since the avowed purpose D 584
since the soviet economy D 570
silks of various colours D 558
since the pioneer studies D 551
signs of senile dementia D 548
since the exciting current D 538
sight of misery enlists D 526
signs of mental fatigue D 506
since the neural network D 505
since the source voltage D 494
since the strike started D 492
since the police officer D 492
since the french language D 464
since the leakage current D 462
since the census figures D 446
since the latter rambled D 442
since the cosine function D 440
since it varies according D 436
signs of battle fatigue D 433
since he prided himself D 430
since the terror attacks D 427
sixty or eighty millions D 412
since the second premise D 410
since the market economy D 400
sibyl no sooner appeared D 393
sixty to eighty bushels D 388
sides of narrow streets D 378
since the budget deficit D 372
signs of violent behavior D 368
signs of unrest appeared D 358
since the recent revival D 356
since the recent decision D 352
since the atomic numbers D 346
since the cement company D 342
since the signal voltage D 340
since the shooting started D 334
since the second election D 332
sight of common mortals D 332
since the initial kinetic D 328
since the middle tertiary D 324
sitting in solemn silence D 322
since we talked together D 312
since the section modulus D 312
since the plasma density D 312
since the various sections D 310
since the entire village D 310
since in aqueous solution D 302
since the allied invasion D 300
signs of becoming restive D 298
signs on street corners D 290
signs of public rejoicing D 288
signs of former tillage D 288
sites on plasma albumin D 287
since he reached manhood D 278
sinning or sinned against D 277
sites of famous battles D 276
since the helium nucleus D 275
sized or larger samples D 274
since the planar devices D 274
sixty or eighty dollars D 268
sites in target tissues D 266
since the global economy D 266
sizes of various objects D 264
since the energy radiated D 264
sight of something familiar D 264
since the native language D 262
since the sample variance D 260
sitting or kneeling posture D 252
since the profit margins D 250
since the aqueous solution D 250
since the french colonial D 248
since he became premier D 240
sitting in sullen silence D 236
since the sexual division D 236
since it became popular D 234
since the artist himself D 232
since the series started D 230
since the entire economy D 228
since the crisis erupted D 226
since the second circuit D 225
since the dipole moments D 224
sight of various objects D 222
since the output circuit D 220
since the french alliance D 220
since he became foreign D 220
sight of abject poverty D 220
sites of plaque rupture D 219
sites of memory storage D 218
since the income remains D 218
signs of divine election D 217
sitting on street corners D 216
since the summer vacation D 216
since the curved surface D 212
sixty to eighty millions D 210
sitting to supine position D 208
signs of muscle atrophy D 205
sites of gaseous exchange D 204
since the recent election D 204
sites on plasma protein D 202
since the schism between D 202
signs of abject poverty D 200
sight of something unusual D 200
sites of former dwellings D 198
since we danced together D 195
since the county council D 194
since the radiating surface D 190
sitting the artist himself D 188
singers or public speakers D 188
sight of something precious D 186
since the shooting stopped D 182
since the recent increase D 182
since the inland revenue D 182
since in dilute solution D 182
signs of scurvy appeared D 182
since the survey started D 180
sites of sexual contact D 178
since we firmly believe D 176
since the public welfare D 176
since the french invaded D 176
signs of deviant behavior D 176
since the french economy D 172
since it varies between D 172
siege in modern history D 172
since the income derived D 170
since the allied victory D 168
signs of thyroid hormone D 168
since the middle forties D 166
since it readily absorbs D 166
signs of muscle fatigue D 166
sides in inward wrestling D 166
signs of severe poisoning D 165
silks of divers colours D 164
signs of strife between D 164
signs of bodily fatigue D 164
signs of becoming baroque D 163
signs of recent illness D 162
sight of absent friends D 162
sizes of various species D 160
sitting on chairs outside D 160
since the latter derives D 160
signs of mounting anxiety D 160
signs of sexual pleasure D 158
signs of becoming popular D 158
sitting in solemn council D 156
since the french entered D 156
since the bubble economy D 156
sight of something unfitting D 156
sites is highly variable D 154
since the section numbers D 154
sitting on school benches D 153
sites in various tissues D 152
sides by tangled thickets D 152
sinew of rugged manhood D 150
since the ruined coronet D 150
sight of bodily results D 150
sitting in special sessions D 148
sitting at dinner between D 148
signs of serious disunion D 148
signs at street corners D 148
sight of another picture D 148
since the thyroid hormone D 147
since the survey covered D 146
since the prices charged D 146
since the partial revival D 146
signs of combat fatigue D 146
sites in tissue sections D 144
since the danish invasion D 144
signs of strange behavior D 144
signs of recent exertion D 144
sides the feeble rampart D 144
sight of twenty thousand D 142
since the latter variable D 141
since the double jeopardy D 140
signs of recent passage D 140
sight to behold numbers D 140
since the seventh national D 138
since the former colonial D 138
since he became manager D 138
signs of revolt appeared D 138
sides of public streets D 138
since the freezing process D 136
since in recent decades D 136
signs of aortic rupture D 136
since the french arrived D 134
sizes of school systems D 132
since the recent general D 132
since the earlier colonial D 132
since the angular diameter D 132
sight of savage warriors D 132
since we sailed together D 130
since the famous contest D 130
since the earlier surveys D 130
sight of mortal agonies D 130
sides by public streets D 130
sizes in public schools D 128
sites of plasma protein D 128
since the tartar invasion D 128
since the initial invasion D 128
since the church forbade D 128
sixty to ninety dollars D 126
since the soviet takeover D 126
since the police arrived D 126
sixty to eighty gallons D 124
since the volume diameter D 124
since the fission process D 124
since the amount payable D 124
since the session started D 122
since the second operand D 122
since the budget process D 122
since the steamer stopped D 120
since the retiring partner D 120
since the french academy D 120
since the active deposit D 120
signs of bodily weakness D 120
since the silver nitrate D 119
since ye afford delight D 118
since the initial outbreak D 118
since the earlier reports D 118
since an aqueous solution D 118
signs of sexual behavior D 118
sight to almost everything D 118
sides of dormer windows D 118
since the census returns D 116
sight is turned towards D 116
since the hazard function D 115
since the senate refused D 114
since the review process D 114
signs of serious poisoning D 114
sighs of relief because D 114
since the twelfth dynasty D 113
sites of tension between D 112
sites in ballet dancers D 112
since the second national D 112
since the earlier reviews D 112
since the actual amounts D 112
since it merely amounts D 112
since he neither alloyed D 112
signs of rabies develop D 112
signs of mutiny appeared D 112
since the census records D 111
since the initial impetus D 110
since the dollar amounts D 110
since the common factual D 110
sixty by direct courses D 108
since the tangent function D 108
since the sodium content D 108
since the policy process D 108
since the latest reports D 108
since the inside diameter D 108
since the french company D 108
since the courts usually D 108
signs of cancer include D 108
sides of alpine valleys D 108
sitting on public benches D 106
since the various sectors D 106
since the sulfur content D 105
sitting in chairs outside D 104
sinking the battle cruiser D 104
since the spatial variation D 104
since the liquor traffic D 104
since the finely divided D 104
since the dismal thirtieth D 104
since the charging process D 104
signs of sepsis include D 104
sites of thyroid hormone D 103
sitting on little benches D 102
sitting in chairs against D 102
sinning as sinned against D 102
since the thermal radiation D 102
since the phrase conveys D 102
since he girded himself D 102
signs of tension appeared D 102
sides by narrow streets D 102
since the french refused D 100
since the french national D 100
since the decree against D 100
since he betook himself D 100
since the various portions D 98
since the thermal neutron D 98
since the supine position D 98
since the glacial maximum D 98
since the entire circuit D 98
since the diamond jubilee D 98
since the bishop himself D 98
since the angular position D 98
signs of kidney trouble D 98
signs of hypoxia include D 98
sight of divine justice D 98
since the copper content D 97
since we roomed together D 96
since the recent reforms D 96
since the native speakers D 96
since the initial voltage D 96
since he places himself D 96
signs of recent upheaval D 96
signs of recent repairs D 96
sight of strange objects D 96
sight of another witness D 96
since the border clashes D 95
since the sequoia forests D 94
since the recent trouble D 94
since the recent history D 94
since the earlier portions D 94
signs of sepsis develop D 94
signs of partial seizure D 94
signs of female arousal D 94
since the census reports D 93
since the tuition payment D 92
since the stator current D 92
since the merger between D 92
since the income figures D 92
since the actual voltage D 92
sight of disease affects D 92
sizes of animal viruses D 90
sites of active protein D 90
sinking the escort carrier D 90
since the target language D 90
since the recent decline D 90
signs of severe hepatic D 90
signs of recent violence D 90
sight of sinful objects D 90
sight of another vehicle D 90
sinking or damaging several D 88
since the valves prevent D 88
since the special features D 88
since the recent outbreak D 88
since the nerves supplying D 88
since the middle peasants D 88
since the joints between D 88
since the common features D 88
since the actual behavior D 88
sight of simply because D 88
sight of another familiar D 88
sides of wooded islands D 88
since the uprising against D 86
since the rezoning decision D 86
since the normal density D 86
since the changes wrought D 86
since the changes occurring D 86
since it spreads rapidly D 86
signs of septic poisoning D 86
signs of greater aversion D 86
signs of glacial abrasion D 86
sitting in chairs arranged D 84
since the various national D 84
since the troops arrived D 84
since the planning horizon D 84
since it varies depending D 84
since it partly depends D 84
signs of soviet weakness D 84
signs of severe torture D 84
sides of office buildings D 84
since the triple entente D 82
since the sexual impulse D 82
since the reasoning faculty D 82
since the houses towards D 82
since the direct election D 82
since the artist dropped D 82
since it varies linearly D 82
sides by bitter enemies D 82
since the retina becomes D 80
since the refining process D 80
since the annual reports D 80
since my second husband D 80
signs of serious medical D 80
signs of excess aspirin D 80
sighs of relief greeted D 80
since the liquid crystal D 60
since the second plenary D 53
since the solids content D 45
since the french general D 45
sinking or swimming together D 44
since the fossil remains D 44
sight of something outside D 44
sight of bodily suffering D 44
sitting on stools outside D 41
silty or clayey material D 41
since the survey results D 40
since the latter derived D 40
