with about twenty thousand M 2969
with about twelve hundred M 2952
with still greater violence M 2942
with which nature endowed M 2592
with close family members M 2436
with major mental illness M 2121
with still greater success M 2100
with every modern comfort M 1790
with about twelve thousand M 1495
with healthy immune systems M 1380
with older family members M 1292
with strong public support M 1267
with local school systems M 1232
with large spaces between M 1222
with deadly effect against M 1180
with total assets exceeding M 1055
with which family members M 1010
with which modern society M 1002
with small spaces between M 982
with still greater freedom M 908
with about twenty members M 894
with nearly twenty thousand M 873
with about eleven hundred M 816
with still further increase M 805
with small square windows M 764
with still greater pleasure M 728
with fluid volume deficit M 704
with local public schools M 694
with space enough between M 646
with equal spaces between M 642
with adult family members M 632
with still greater delight M 614
with which common writers M 602
with still greater justice M 602
with others through language M 594
with people unless certain M 582
with growing public concern M 568
with about twenty minutes M 559
with civil rights workers M 546
with large enough samples M 542
with strong family history M 526
with equal effect against M 520
with still greater urgency M 514
with still another problem M 497
with which nature herself M 494
with hands joined together M 494
with strong feelings against M 488
with equal weight against M 472
with equal strength against M 460
with small initial letters M 438
with empty spaces between M 438
with about eighty thousand M 438
with human rights matters M 434
with still greater clarity M 432
with nearly twelve thousand M 416
with mixed feelings because M 404
with strong family support M 401
with still better results M 395
with every little problem M 382
with water supply systems M 376
with small sample volumes M 372
with white foster parents M 370
with older adults because M 362
with still deeper anxiety M 354
with power shared between M 344
with about eleven thousand M 335
with large enough numbers M 328
with which matter affects M 326
with large public buildings M 322
with human rights abusers M 321
with nearly twelve hundred M 316
with growth factor support M 302
with wider spaces between M 300
with equal energy against M 300
with still greater anxiety M 296
with still another question M 292
with quite another purpose M 292
with acute mental illness M 292
with which public affairs M 288
with every person present M 288
with others simply because M 280
with about twenty species M 280
with about twenty percent M 278
with which nature abounds M 277
with which modern history M 276
with which wisdom refuses M 268
with deadly hatred against M 266
with about twenty persons M 264
with large square windows M 256
with which various letters M 254
with still greater respect M 250
with every chance against M 250
with right aspect against M 248
with paper covers printed M 246
with child before marriage M 242
with which modern writers M 236
with still larger numbers M 236
with either parent species M 236
with white spaces between M 232
with longer periods between M 232
with which nature threatens M 230
with others mostly preached M 227
with still another example M 222
with linear strain hardening M 220
with acute stress reactions M 218
with vivid visual imagery M 216
with every thought uttered M 214
with which actual results M 212
with above twenty thousand M 212
with which various aspects M 210
with about eighty members M 210
with close female friends M 206
with which various members M 204
with every corner brought M 204
with hands folded together M 202
with about ninety thousand M 202
with still greater numbers M 200
with rather better success M 200
with nouns denoting persons M 200
with water before beginning M 196
with still greater decision M 196
with lower energy content M 196
with guilt feelings because M 196
with equal labour returns M 196
with still greater devotion M 194
with civil rights matters M 193
with total assets between M 192
with still better success M 192
with brain damage resulting M 192
with legal issues related M 190
with women before marriage M 188
with every kindly sympathy M 188
with about eighty percent M 188
with strong visual imagery M 186
with small tables between M 186
with nearly eighty thousand M 186
with strong immune systems M 184
with small wooden crosses M 184
with falling asleep quickly M 184
with every effort towards M 184
with large format cameras M 182
with every member present M 180
with quite another problem M 177
with older adults include M 176
with water before returning M 174
with strong forces against M 174
with small broken objects M 174
with people simply because M 174
with money through meanness M 174
wit under entire control M 174
with quick animal spirits M 172
with hands locked together M 172
with every lawful traffic M 172
with white wooden columns M 170
with rather better results M 170
with people pretty quickly M 170
with first person subject M 170
with which something happens M 168
with still deeper concern M 168
with hands placed together M 168
with civil actions between M 166
with about ninety percent M 166
with growing public support M 164
with brain reward systems M 164
with about twelve members M 162
with which modern research M 158
with every measure adopted M 158
with which fiction threatens M 156
with human nature because M 156
with large initial letters M 155
with hands raised towards M 154
with every notice summoning M 154
with which public schools M 152
with short spaces between M 152
with badly needed capital M 152
with which modern critics M 150
with which various species M 148
with which various classes M 148
with still greater increase M 148
with lower verbal ability M 148
with large safety factors M 148
with which modern western M 146
with which divine service M 146
with every public question M 146
with which various factors M 144
with close family friends M 144
with people unlike himself M 142
with large cracks between M 142
with every little decision M 142
with white wooden crosses M 140
with which already thinkers M 140
with space charge effects M 140
with large random samples M 140
with others before marriage M 138
with local labour parties M 138
with ample spaces between M 138
with water supply schemes M 136
with total energy between M 136
with large sample volumes M 136
with equal passion against M 136
with often tragic results M 135
with major public buildings M 132
with lower credit quality M 132
with still greater jealousy M 130
with small narrow windows M 130
with rather clearly defined M 130
with grand public buildings M 130
with every virtue fraught M 130
with people standing outside M 129
with which modern culture M 128
with rather little success M 128
with human rights workers M 128
with every school subject M 128
with every needed comfort M 128
with equal rights between M 128
with black wooden crosses M 128
with armed forces against M 128
with armed guards outside M 127
with small wooden buildings M 126
with rather poorly defined M 126
with local public affairs M 126
with which various writers M 124
with which ladies improve M 124
with small annual operating M 124
with learning another language M 124
with either direct current M 124
with every detail correct M 123
with which earlier writers M 122
with which devout persons M 122
with still greater disgust M 122
with small tables covered M 122
with small kneeling figures M 122
with round tables covered M 122
with rough wooden crosses M 122
with labor market demands M 122
with local access numbers M 120
with which nature usually M 118
with human disease include M 118
with noble yearnings towards M 116
with large middle classes M 116
with which mental illness M 114
with water before addition M 114
with still greater reforms M 114
with state public utility M 114
with local rescue efforts M 114
with large modern buildings M 114
with which various objects M 112
with which common affairs M 112
with which church members M 112
with varying spaces between M 112
with every detail arranged M 112
with which normal persons M 110
with still greater results M 110
with which wilder pressed M 108
with still deeper insight M 108
with local school teachers M 108
with later school success M 108
with every gained century M 108
with still another element M 107
with which neither congress M 106
with newly formed vessels M 106
with nearly eleven thousand M 106
with mixed feelings towards M 106
with every further advance M 106
with weaker immune systems M 104
with noble public buildings M 104
with lower starting current M 104
with extra spaces between M 104
with about twenty seconds M 104
with large forces against M 102
with hired labour usually M 102
with which various persons M 100
with still greater benefit M 100
with lower mental ability M 100
with legal claims against M 100
with which divine justice M 98
with still greater dignity M 98
with every minute element M 98
with every detail perfect M 98
with either family members M 98
with crime without process M 98
with valid claims against M 96
with sound deadening material M 96
with older adults suffering M 96
with legal issues affecting M 96
with large double windows M 96
with heroes fighting immense M 96
with eight family members M 96
with costs shared between M 96
with civil actions involving M 96
with which events succeed M 94
with which crimes against M 94
with mother nature herself M 94
with money raised locally M 94
with large yellow letters M 94
with adult second language M 94
with water without requiring M 92
with small animal figures M 92
with rather modest results M 92
with longer delays between M 92
with large yellow buttons M 92
with every window lighted M 92
with every detail planned M 92
with black wooden handles M 92
win wider public support M 92
with which various animals M 90
with strong public service M 90
with people merely because M 90
with brain damage because M 90
with which doctor studies M 88
with which creation abounds M 88
with extra caution because M 88
with every female patient M 88
with which former editions M 86
with light weight material M 86
with large crowds attending M 86
with equal hatred against M 86
with civil rights protest M 86
with black spaces between M 86
with which bodies attract M 84
with still further degrees M 84
with small forces against M 84
with every guilty pleasure M 84
with warmth enough against M 82
with still heavier burdens M 82
with small groups because M 82
with rather marked success M 82
with labor market reforms M 82
with every detail exactly M 82
with which public measures M 80
with strong reasons against M 80
with solid public support M 80
with others already familiar M 80
with large binary numbers M 80
with about ninety members M 80
with steady direct current M 51
with first person pronoun M 49
with every failed attempt M 43
with which legend credits M 40
with small yellow flowers D 2646
with large yellow flowers D 1860
with which modern science D 1674
with breast cancer receiving D 1410
with large silver buckles D 1294
with telling effect against D 1214
with large silver buttons D 1168
with sixty diamond minutes D 1062
with broad public support D 988
with acute yellow atrophy D 983
with rough strife thorough D 937
with short puffed sleeves D 936
with every little pitiful D 888
with large purple flowers D 820
with lower profit margins D 818
with large dipole moments D 814
with fatal effect against D 718
with large landed estates D 693
with white collar workers D 686
with short pauses between D 686
with fiber volume fraction D 674
with fasting plasma glucose D 668
with thinly veiled sarcasm D 660
with large public sectors D 650
with liver disease because D 644
with large plates printed D 642
with black velvet collars D 626
with faces turned towards D 617
with large arched windows D 602
with adult sexual deviation D 576
with small barred windows D 564
with white silken turbans D 558
with sweet smelling flowers D 554
with small profit margins D 554
with lower family incomes D 538
with solar energy systems D 532
with breast cancer screening D 509
with plain boiled potatoes D 506
with tongue firmly planted D 504
with lower carbon content D 497
with small purple flowers D 488
with hands piously pressed D 482
with black velvet ribbons D 476
with lower atomic numbers D 468
with median family incomes D 466
with fifty million dollars D 464
with human rights treaties D 463
with gaudy shapes possess D 460
with meager enough results D 450
with longer pauses between D 436
with showy yellow flowers D 432
with large double flowers D 421
with grace divine preside D 421
with creamy mashed potatoes D 416
with liver disease develop D 412
with every modern amenity D 404
with risky sexual behavior D 394
with melting points between D 392
with lower sulfur content D 388
with fingers pointing forward D 388
with large atomic numbers D 384
with blood vessel invasion D 382
with acute kidney failure D 378
with white marble columns D 374
with forty million dollars D 372
with empty liquor bottles D 372
with white marble pillars D 364
with acute cardiac failure D 360
with small arched windows D 354
win broad public support D 346
with lower oxygen content D 342
with white quartz pebbles D 340
with still greater cruelty D 339
with brief pauses between D 338
with every police officer D 336
with varying carbon content D 334
with solid silver nitrate D 334
with every muscle relaxed D 332
with eight million dollars D 331
with light yellow flowers D 324
with every amiable quality D 324
with plain wooden benches D 322
with strong sexual desires D 314
with seven million dollars D 312
with boiling points between D 310
with broad yellow stripes D 304
with rough wooden benches D 298
with longer disease duration D 298
with palms joined together D 296
with eight wheels coupled D 292
with white cotton stockings D 289
with small quartz pebbles D 288
with large profit margins D 288
with blank spaces between D 288
with breast cancer between D 286
with fatal curses towards D 284
with major changes occurring D 278
with total assets amounting D 270
with breast cancer because D 268
with thirty million dollars D 266
with birch pollen allergy D 266
with which modern physics D 264
with local office workers D 264
with breast cancer attending D 262
with stock market returns D 253
with renal disease because D 250
with large french windows D 250
with burring furred antennae D 250
with strong coupling between D 246
with small floral designs D 246
with white marble statues D 244
with still greater courage D 244
with waves crashing against D 236
with linear charge density D 236
with light purple flowers D 234
with small grated windows D 232
with close liaison between D 230
with black marble mantels D 228
with round arched windows D 226
with roots firmly planted D 224
with broad policy matters D 223
with others without friction D 222
with liver disease include D 222
with large wooden mallets D 222
with black tinted windows D 222
with power supply voltage D 220
with large puffed sleeves D 220
with legal tender quality D 216
with large angular momenta D 216
with strong potash solution D 212
with large openings between D 212
with either silver nitrate D 212
with broad purple stripes D 212
with breast cancer develop D 212
with small boiled potatoes D 210
with total angular momenta D 209
with fitting strain resound D 209
with plant tissue culture D 208
with black calico sleeves D 206
with acute versus chronic D 206
with which french writers D 204
with small wooden hammers D 204
with seven radiating chapels D 204
with large office buildings D 204
with creamy yellow flowers D 204
with small random weights D 202
with funds raised locally D 202
with dense virgin forests D 202
with black velvet trappings D 202
with small silver buttons D 198
with quick choppy strokes D 198
with large wooden paddles D 198
with large floral designs D 196
with black velvet trimmings D 196
with black velvet sleeves D 196
with motor neuron diseases D 194
with rather coarse features D 192
with black marble columns D 192
with black cotton stockings D 192
with small silver buckles D 190
with gross annual incomes D 190
with seven silken knights D 188
with breast cancer present D 186
with strong native persons D 184
with small streams trickling D 184
with which french society D 182
with sugar little inferior D 182
with rival trapping parties D 182
with nodding lilies rumbled D 182
with drugs active against D 182
with which soviet society D 180
with thinly veiled disgust D 180
with every muscle straining D 180
with strong ammonia solution D 178
with human rights lawyers D 178
with human plasma fraction D 178
with gross profit margins D 178
with flash points between D 178
with which modern hoydens D 176
with sharp ridges between D 176
with white starry flowers D 174
with organ system failure D 174
with changing market demands D 174
with broad sweeping strokes D 174
with hands firmly clasped D 172
with equal fervor against D 172
with brick arches between D 172
with chick embryo extract D 170
with breast cancer include D 170
with breast cancer survive D 168
with whole hearted devotion D 166
with solid tumors receiving D 166
with large wicker baskets D 166
with large dormer windows D 166
with breast cancer following D 166
with which native speakers D 164
with which modern speakers D 164
with small dormer windows D 164
with overt cardiac failure D 164
with fully double flowers D 164
with sixty million dollars D 162
with black velvet stripes D 162
with small carved figures D 161
with fresh buffer solution D 160
with upper status members D 158
with growing tension between D 158
with major policy matters D 157
with witty malice studious D 156
with small wooded islands D 156
with rocky ridges bordering D 156
with fresh sliced tomatoes D 156
with drawn swords entered D 156
with whole flower gardens D 154
with money supply targets D 154
with whole pollen extract D 152
with adult sexual deviants D 152
with which modern artists D 150
with strong sexual content D 150
with human sexual behavior D 150
with fewer family members D 150
with broad grassy borders D 150
with fingers pointing upwards D 149
with which sexual matters D 148
with small atomic numbers D 148
with shiny silver buttons D 148
with local labour markets D 148
with still another variation D 147
with white muslin dresses D 146
with neatly turned pillars D 146
with large wooden pestles D 146
with white marble trimmings D 144
with tight labour markets D 144
with small flower gardens D 144
with showy yellow stamens D 144
with rather larger flowers D 144
with fused silica windows D 144
with thinly veiled disdain D 142
with grass pollen extract D 142
with crude wooden benches D 142
with badly needed foreign D 142
with about twenty dollars D 142
with grass pollen allergy D 141
with which geology renders D 140
with water before inserting D 140
with small wooden mallets D 140
with still greater aversion D 138
with rusty yellow buttons D 138
with metal plates screwed D 138
with large yellow patches D 138
with every muscle quivering D 138
with words through riddles D 136
with thinly sliced potatoes D 136
with serum levels between D 136
with acute severe colitis D 136
with equal dollar amounts D 135
with total annual incomes D 134
with strong soviet support D 134
with eight million members D 134
with vigor without regarding D 132
with varying oxygen content D 132
with small cookie cutters D 132
with rigid labour markets D 132
with people carrying banners D 132
with drawn swords guarded D 132
with oaken frames visible D 130
with fingers pointing towards D 130
with equal spacings between D 130
with crude wooden crosses D 130
with breast cancer usually D 130
with blank square windows D 130
with which bomber command D 128
with trade policy reforms D 128
with small openings between D 128
with small dipole moments D 128
with short disease duration D 128
with renal disease include D 128
with rather striking results D 128
with liver disease require D 128
with lines radiating outward D 128
with group policy objects D 128
with broad spaces between D 128
with about twenty warriors D 128
with child sexual assault D 127
with still active athletes D 126
with social groups outside D 126
with group therapy sessions D 126
with plain catgut sutures D 125
with sally always dressed D 124
with local police stations D 124
with drawn swords charged D 124
with brass anchor buttons D 124
with strong silver nitrate D 122
with steep slopes covered D 122
with round corner turrets D 122
with large golden flowers D 122
with grand canyon national D 122
with which simple drapery D 120
with round quartz pebbles D 120
with renal disease receiving D 120
with green marble pillars D 120
with light serene adorned D 119
with which newton himself D 118
with thinly sliced tomatoes D 118
with strong flanking parties D 118
with still vaster results D 118
with still greater reserve D 118
with money market deposit D 118
with lemon yellow flowers D 118
with every mental faculty D 118
with civil rights lawyers D 118
with breast cancer revealed D 118
with black velvet buttons D 118
with which modern warfare D 116
with small dollar amounts D 116
with sharp angular features D 116
with black velvet trimmed D 116
with black marble pillars D 116
with white ribbon plaited D 114
with steep narrow streets D 114
with small golden flowers D 114
with large dollar amounts D 114
with healthy profit margins D 114
with green velvet cushions D 114
with growth factor signaling D 113
with which polite society D 112
with sheaths richly wrought D 112
with large shopping centers D 112
with fresh grated coconut D 112
with which public speakers D 110
with strong taboos against D 110
with rapid changes occurring D 110
with lower values occurring D 110
with holes already drilled D 110
with drawn swords against D 110
with palms placed together D 109
with still greater brevity D 108
with sober second thoughts D 108
with smooth muscle bundles D 108
with major weapons systems D 108
with lower energy density D 108
with liver disease usually D 108
with black velvet drapery D 108
with whose polite address D 106
with which french tragedy D 106
with which custom invests D 106
with stern warnings against D 106
with lofty marble pillars D 106
with later violent behavior D 106
with large wooden shovels D 106
with labor pushed oblique D 106
with winding narrow streets D 104
with which through popular D 104
with still deeper gravity D 104
with lower status members D 104
with local versus general D 104
with falling profit margins D 104
with eight fluted columns D 104
with urban public schools D 102
with swift defiant strokes D 102
with still greater license D 102
with solid silver handles D 102
with small tissue samples D 102
with others across national D 102
with loose coupling between D 102
with forts raised against D 102
with either saline solution D 102
with breast cancer respond D 102
with basic bismuth nitrate D 102
with about twenty gallons D 102
with women carrying baskets D 100
with strong desire wouldst D 100
with social issues affecting D 100
with round silver buttons D 100
with plain lancet windows D 100
with first deputy premier D 100
with finding broken portions D 100
with cleft palate because D 100
with blood levels between D 100
with stock market investing D 99
with onset before puberty D 99
with tight profit margins D 98
with strong dipole moments D 98
with social changes brought D 98
with small tinsel parcels D 98
with people without diabetes D 98
with overt sexual content D 98
with every shrill variety D 98
with doors closed against D 98
with court orders requiring D 98
with breast cancer surgery D 98
with white muslin drapery D 96
with strong saline solution D 96
with still greater cogency D 96
with rather dubious results D 96
with rapid clangor hurried D 96
with lofty turret flanked D 96
with light yellow jackets D 96
with falling amongst robbers D 96
with brain tumors usually D 96
with whose brands several D 94
with white opaque figures D 94
with waxen tapers twinkling D 94
with shining silver buckles D 94
with lower atomic weights D 94
with funds raised largely D 94
with close bodily contact D 94
with every random variable D 93
with truly heroic courage D 92
with total family incomes D 92
with still greater fluency D 92
with state public welfare D 92
with small bright flowers D 92
with showy purple flowers D 92
with seven gilded statues D 92
with lumpy mashed potatoes D 92
with lower status persons D 92
with folding chairs arranged D 92
with white wicker rockers D 90
with white canvas broadly D 90
with urban middle classes D 90
with stock market crashes D 90
with small nuclear warheads D 90
with small double flowers D 90
with quite modest incomes D 90
with lower annual incomes D 90
with large stones between D 90
with human plasma protein D 90
with white marble tablets D 88
with water before filtering D 88
with still greater avidity D 88
with small sunken windows D 88
with small puffed sleeves D 88
with seven million members D 88
with roles clearly defined D 88
with forty chants arranged D 88
with court orders regarding D 88
with tight coupling between D 86
with strip shopping centers D 86
with small turkey carpets D 86
with parting meteors crossed D 86
with holes already punched D 86
with small dinner parties D 85
with still deeper crimson D 84
with rusty little bunches D 84
with rather striking features D 84
with local branch offices D 84
with large export markets D 84
with large bursting charges D 84
with gross income derived D 84
with every passion wrought D 84
with drawn swords towards D 84
with breast cancer depends D 84
with acute bodily suffering D 84
with sandy basins between D 82
with lower copper content D 82
with legal issues regarding D 82
with large diamond buttons D 82
with gleaming marble pillars D 82
with fused silica columns D 82
with eight marble columns D 82
with drawn swords appeared D 82
with breast cancer remains D 82
with strong french support D 80
with melting points usually D 80
with lower energy photons D 80
with loose planks studded D 80
with every feature perfect D 80
with palms turned outward D 60
with either herpes simplex D 56
with palms turned upwards D 54
with lower nickel content D 46
with brain tumors present D 44
with fresh garden produce D 41
