with different starting points M 1776
with different initial values M 1116
with different random number M 814
with different client groups M 814
with different starting values M 690
with knowledge gained through M 563
with different access rights M 482
with different charge states M 375
with different initial states M 300
with different initial random M 292
with different disease states M 287
with important public duties M 274
with witnesses appearing before M 272
with reasonably stable prices M 270
with different random initial M 244
with effective family planning M 234
with arbitrary initial values M 218
with assistant united states M 216
with different mental states M 204
with executions without number M 194
with important public issues M 192
with difficult ethical issues M 188
with different mental models M 172
with advertising claims relating M 172
with different return periods M 170
with different labour market M 162
with occasional slight changes M 156
with occasional special issues M 152
with admirable public spirit M 152
with technical school training M 147
with throughout various phases M 140
with predicted normal values M 140
with everybody standing around M 139
with previously stored images M 136
with admirable little images M 134
with different random starting M 133
with permanent severe visual M 130
with different market shares M 128
with different initial phases M 126
with different initial points M 124
with different speech sounds M 123
with generally higher values M 122
with specified initial values M 114
with different liquid phases M 111
with attitudes toward family M 110
with community groups around M 108
with reference thereto should M 106
with different sampling periods M 106
with different marker colors M 106
with increasingly larger groups M 104
with different sampling methods M 102
with different factor prices M 102
with different animal models M 102
with different energy values M 101
with maintaining public safety M 100
with knowledge already stored M 98
with different initial weight M 98
with additional matter relating M 96
with different initial masses M 94
with different access points M 92
with important ethical issues M 88
with different active groups M 88
with additional access points M 88
with important public events M 86
with different mental habits M 86
with continued united states M 86
with attitudes toward various M 84
with attitudes toward school M 84
with attitudes toward gender M 84
with mysterious female powers M 82
with countries further afield M 50
with different income levels D 1944
with preexisting cardiac disease D 1784
with saturated aqueous sodium D 1682
with different strike prices D 1610
with prosthetic cardiac valves D 1280
with strategic nuclear weapons D 1144
with congenital cardiac disease D 1132
with displaced visual fields D 1016
with recurrent ovarian cancer D 981
with dissolved carbon dioxide D 837
with papillary thyroid cancer D 796
with centrally placed nuclei D 788
with inhibited sexual desire D 778
with residuary powers vested D 776
with different muscle groups D 752
with secondary school pupils D 699
with different energy levels D 694
with different target groups D 568
with transient global amnesia D 546
with extensive tissue damage D 524
with molecular weight greater D 500
with different atomic masses D 492
with sequenced flashing lights D 471
with suspected spinal injury D 468
with qualified teacher status D 434
with decomposing animal matter D 434
with phosphate buffer saline D 432
with strategic nuclear forces D 422
with increasingly higher levels D 414
with porcelain jacket crowns D 401
with bilateral bundle branch D 396
with occasional vistas through D 370
with preexisting bundle branch D 358
with emergency lights flashing D 358
with conduction system disease D 356
with depressed mental status D 346
with additional grated cheese D 326
with congenital cardiac lesions D 312
with preserved mental status D 310
with sharpened bamboo stakes D 308
with different striking prices D 304
with suspected cardiac disease D 302
with influencing public opinion D 300
with suggested retail prices D 290
with municipal sewage sludge D 288
with electrons orbiting around D 288
with sharpened bamboo sticks D 280
with intrinsic periods greater D 278
with additional melted butter D 278
with accessory bypass tracts D 278
with molecular weight around D 276
with effective nuclear charge D 268
with prosthetic aortic valves D 262
with different spatial scales D 252
with suspected ovarian cancer D 244
with absorbent cotton dipped D 244
with recurrent rectal cancer D 242
with important public policy D 242
with different mobile phases D 242
with bilateral carpal tunnel D 234
with permanent dipole moment D 226
with different initial levels D 224
with absorbent cotton soaked D 224
with surrounding normal tissue D 222
with different demand curves D 220
with important policy issues D 216
with overlapping visual fields D 214
with recurrent kidney stones D 212
with malignant ovarian tumors D 212
with engineered sharps injury D 210
with congenital cystic disease D 210
with irregular darker markings D 208
with resultant tissue damage D 204
with hydraulic cement mortar D 204
with quantized energy levels D 202
with inelastic demand curves D 202
with secondary school training D 198
with litigation charging malice D 192
with excessive sexual desire D 192
with extensive carious lesions D 188
with pulmonary disease should D 186
with pulmonary venous return D 184
with molecular weight higher D 181
with suspected biliary disease D 180
with difficult venous access D 180
with preexisting kidney disease D 178
with penetrating cardiac wounds D 176
with generally higher levels D 176
with colloidal thorium dioxide D 176
with intervening normal mucosa D 175
with pulmonary disease caused D 172
with excellent visual acuity D 170
with cocktails before dinner D 170
with dissolved oxygen levels D 168
with suspected partial common D 166
with influencing public policy D 162
with composted sewage sludge D 162
with suspected thyroid disease D 160
with additional carbon dioxide D 158
with vertebral artery injury D 156
with esophageal cancer treated D 156
with different stress levels D 156
with defective visual acuity D 156
with prosthetic valves should D 152
with occasional gentle swirling D 152
with different speeds through D 152
with different income groups D 152
with extensive muscle damage D 150
with primitive mental states D 148
with octagonal corner towers D 148
with moonlight streaming through D 148
with identical strike prices D 148
with identical demand curves D 148
with ambiguous sexual organs D 144
with suspected carpal tunnel D 142
with pancreatic cancer treated D 142
with occasional gentle stirring D 142
with infantile spasms treated D 142
with different native tongues D 142
with different filter settings D 142
with formulating public policy D 140
with extensive thermal injury D 140
with different tribal groups D 140
with different policy options D 140
with molecular weight cutoff D 139
with molecular masses greater D 138
with loveliest frenzy caught D 134
with depressed cardiac output D 134
with sharpened bamboo spikes D 131
with selective venous sampling D 131
with selective versus random D 130
with different sexual values D 128
with statutory powers ordering D 126
with different atomic number D 124
with anhydrous liquid ammonia D 124
win favorable public opinion D 124
with selfishly availing myself D 122
with scattered quartz grains D 122
with occasional larger grains D 122
with bilateral inguinal hernias D 122
with previously learned skills D 120
with optically active chiral D 120
with different flower colors D 120
with electrons whirling around D 119
with prominent yellow anthers D 118
with permanent kidney damage D 118
with different reducing agents D 118
with corrected visual acuity D 118
with regularly spaced openings D 116
with offensive nuclear weapons D 116
with extensive dental caries D 116
with automatic sample changer D 116
with strategic family therapy D 114
with localized disease treated D 114
with different oxygen partial D 114
with different camera settings D 114
with associated tissue damage D 114
with rheumatic cardiac disease D 112
with behavioral parent training D 111
with resultant tissue hypoxia D 110
with impetuous energy striving D 110
with extensive police powers D 110
with composite cyclic therapy D 110
with autonomic blocking agents D 110
with occasional marine shells D 108
with porcupine quills worked D 106
with malignant disease should D 106
with fictitious events greatly D 106
with excellent verbal skills D 106
with different staining methods D 106
with carefully tended flower D 105
with repetition strain injury D 104
with subnormal visual acuity D 102
with seventeen million pounds D 102
with normalizing united states D 102
with effective atomic number D 102
with different strength levels D 102
with different initial speeds D 102
with clarified butter poured D 102
with contusions serious enough D 100
with thoroughly rotted manure D 98
with mainstream public opinion D 98
with electrons spinning around D 98
with different nuclear masses D 98
with different access levels D 98
with voluntary spending limits D 96
with similarly minded groups D 96
with different output levels D 96
with automatic record changer D 95
with extensive formal training D 94
with penetrating cardiac trauma D 92
with extensive pelvic disease D 92
with executive powers should D 92
with nutritive matter causes D 90
with fluctuating market prices D 90
with germinating pollen grains D 88
with suspicious lesions should D 86
with permanent magnet rotors D 86
with intervening spaces filled D 86
with elaborate mosaic floors D 86
with different atomic weight D 86
with recurrent disease should D 84
with propriety termed dogmas D 84
with propriety justly claims D 84
with preserved muscle tissue D 84
with amazement always spared D 84
with overarching boughs eighty D 82
with inhibited female orgasm D 82
with expensive french labels D 82
with different angular speeds D 82
with flattened nuclei placed D 80
with different salary scales D 80
with chemicals before planting D 44
with previously normal cardiac D 42
