with first degree murder M 5218
with human rights issues M 4759
with world market prices M 2918
with human rights abuses M 2517
with worms crawling through M 2316
with still greater energy M 2276
with large market shares M 2066
with civil rights groups M 2022
with human nature itself M 1554
with human rights groups M 1338
with civil rights issues M 1316
with small market shares M 1282
with still greater effect M 1248
with money market mutual M 1164
with water before applying M 1034
with large proper motions M 1008
with every little detail M 954
with hands folded behind M 836
with small vessel disease M 775
with which wisdom builds M 768
with which united states M 734
with people standing around M 721
with hands folded across M 673
with every minute detail M 670
with light streaming through M 653
with which member states M 638
with every family member M 614
with water before starting M 598
with still greater horror M 590
with strong family values M 565
with every object around M 554
with still greater caution M 522
with money raised through M 522
with fluid volume excess M 466
with large square blocks M 460
with equal rights before M 452
with older adults should M 440
with which something occurs M 426
with which modern readers M 424
with others toward common M 416
with quite another aspect M 410
with quite another object M 398
with local public school M 390
with anything beyond itself M 389
with hands folded before M 381
with white window frames M 374
with still greater wonder M 354
with given initial values M 340
with which various groups M 336
with white matter changes M 323
with hands locked behind M 320
with total energy intake M 318
with every honest effort M 318
with which nature clothes M 312
with quite another matter M 298
with others through speech M 296
with armed guards posted M 294
with which another person M 288
with still greater strength M 288
with small square pieces M 284
with which modern thought M 283
with which nature seemed M 276
with others without becoming M 276
with given factor prices M 273
with others without regard M 272
with every square matrix M 265
with large bright yellow M 264
with still deeper homage M 262
with hands joined before M 258
with equal market shares M 258
with either sister without M 256
with brain damage caused M 256
with small random values M 254
with total energy amount M 248
with plain wooden tables M 248
with large vessel disease M 245
with small wooden blocks M 244
with every window closed M 238
with strong united states M 236
with fixed factor prices M 236
with every absent friend M 236
with which nature always M 234
with others toward shared M 234
with which various values M 228
with human rights should M 228
with still another aspect M 226
with still another person M 222
with small bright yellow M 222
with basic building blocks M 222
with white clouds drifting M 214
with local public bodies M 214
with local labour market M 212
with strong visual images M 208
with storm clouds gathering M 208
with still better effect M 206
with about twenty pieces M 206
with which authors return M 204
with about twenty pupils M 204
with still greater regret M 201
with white matter disease M 199
with still greater effort M 198
with which bodies expand M 196
with force almost enough M 196
with every fleeting moment M 196
with which almost anyone M 194
with which mutual labors M 192
with mixed feelings toward M 190
with deadly effect through M 188
with human nature through M 186
with failing mental powers M 186
with every virtue except M 186
with local church groups M 184
with others through shared M 183
with total assets valued M 182
with still greater detail M 182
with small square blocks M 180
with large enough sample M 180
with every street corner M 180
with total assets greater M 177
with every effort toward M 176
with small energy losses M 174
with large building blocks M 174
with hands raised toward M 174
with still another version M 172
with human nature instead M 172
with which prices adjust M 170
with every window broken M 170
with armed guards standing M 170
with still greater powers M 166
with short training periods M 166
with green meadows dotted M 166
with water supply system M 164
with small volume disease M 164
with large energy losses M 164
with others became gentle M 162
with every detail worked M 162
with which nature itself M 160
with still greater talent M 160
with civil rights causes M 160
with local travel agents M 158
with people without number M 156
with which pupils should M 154
with strong visual impact M 154
with rough wooden tables M 154
with lower market shares M 154
with strong mental powers M 153
with still greater weight M 152
with large labour forces M 152
with finding common ground M 152
with newly formed groups M 150
with which sudden passion M 148
with small proper motions M 148
with small wooden tables M 146
with legal issues relating M 146
with large wooden blocks M 146
with still higher powers M 144
with still greater favour M 144
with blood supply intact M 144
with track changes turned M 142
with still another crisis M 142
with others before deciding M 140
with equal effect across M 140
with blood vessel disease M 140
with which events happen M 138
with small family groups M 138
with basic united states M 138
with small square tables M 136
with short breeding seasons M 136
with large wooden tables M 136
with total united states M 134
with others except through M 134
with black clothes looked M 134
with anything except itself M 133
with strong formal powers M 130
with risks before becoming M 130
with human rights values M 130
with human rights crimes M 130
with large family groups M 128
with enemy ground forces M 128
with shape memory effect M 126
with growing annual losses M 126
with world market trends M 124
with which hardly anyone M 124
with rather simple models M 124
with which sounds travel M 122
with which market forces M 122
with which events follow M 122
with water before removing M 122
with still greater emotion M 122
with major public issues M 122
with fixed assets valued M 122
with every valley filled M 122
with still greater forces M 120
with human errors through M 120
with daily medium changes M 120
with which various authors M 118
with seven listed colors M 118
with light passed through M 118
with extra copies merely M 118
with black window frames M 117
with still further changes M 116
with human nature without M 116
with green lights through M 116
with every proper regard M 116
with which mental states M 114
with which market prices M 114
with which almost always M 114
with others almost always M 114
with local public safety M 114
with large volume changes M 114
with given market prices M 114
with which readers should M 112
with which public bodies M 112
with which family planning M 112
with which exiles credit M 112
with still greater profit M 112
with short latent periods M 112
with green window frames M 112
with vivid mental images M 110
with total market values M 110
with known proper motions M 110
with every little phrase M 110
with still higher values M 108
with others through various M 108
with major united states M 108
with lower energy prices M 108
with junior middle school M 108
with holes burned through M 108
with brain injury should M 108
with armed guards watching M 108
with others already existing M 106
with final causes should M 106
with which speech sounds M 105
with others should always M 104
with honor beyond itself M 104
with growing public demand M 104
with equal effect through M 104
with strong family planning M 103
with works already existing M 102
with which various methods M 102
with which various events M 102
with which public events M 102
with which events unfold M 102
with water without becoming M 102
with hands joined behind M 102
with alien forces without M 102
with which future events M 100
with water passed through M 100
with vivid visual images M 100
with tails streaming behind M 100
with still greater hatred M 100
with still another source M 100
with small sacred images M 100
with others through verbal M 100
with holding secret meetings M 100
with black market prices M 100
with about twenty little M 100
with world events through M 98
with small yellow points M 98
with large sampling errors M 98
with large public issues M 98
with every member myself M 98
with white clouds sleeping M 96
with which passion always M 96
with which nature covers M 96
with small broken pieces M 96
with round wooden tables M 96
with hands placed behind M 96
with equal standing before M 96
with which modern methods M 94
with strong ethical values M 94
with others through common M 94
with which public school M 92
with still higher praise M 92
with still greater honour M 92
with stage fright before M 92
with newly created credit M 92
with joint system models M 92
with fully modern humans M 92
with either united states M 92
with about twenty weight M 92
with every chance fellow M 91
with world energy prices M 90
with varying recall methods M 90
with strong reasoning powers M 90
with still darker shades M 88
with never another glance M 88
with longer training periods M 88
with human rights bodies M 88
with every public measure M 88
with still greater stress M 87
with total energy greater M 86
with strong market shares M 86
with every school system M 86
with which various issues M 84
with water forced through M 84
with still larger forces M 84
with small groups without M 84
with rather little effort M 84
with older adults through M 84
with large public meetings M 84
with helping another person M 84
with world market demand M 82
with working papers issued M 82
with until further notice M 82
with small energy changes M 82
with small building blocks M 82
with newly washed clothes M 82
with money gained through M 82
with empty window frames M 82
with world market forces M 80
with words should praise M 80
with which kindly nature M 80
with still larger groups M 80
with still greater passion M 80
with still another letter M 80
with lower market prices M 80
with falling market prices M 80
with every public school M 80
with never another thought M 46
with people gathering around M 42
with action lively framed M 41
with large energy release M 40
with fresh frozen plasma D 6438
with right bundle branch D 5895
with motor neuron disease D 5149
with solid carbon dioxide D 4014
with which public opinion D 2780
with civil rights leaders D 2780
with local school boards D 2130
with sound public policy D 2096
with social skills training D 1990
with solid wooden wheels D 1802
with liver disease should D 1742
with white picket fences D 1501
with breast cancer treated D 1482
with known cardiac disease D 1474
with nails driven through D 1456
with which nature endows D 1276
with funds raised through D 1160
with lower income levels D 1050
with paper towels before D 1008
with local police forces D 1006
with black velvet collar D 955
with every modern device D 954
with first person singular D 924
with breast cancer should D 906
with large square stones D 874
with which policy makers D 832
with short shrill shriek D 794
with breast cancer before D 764
with black velvet ribbon D 760
with faces turned toward D 725
with smooth muscle fibers D 710
with plain carbon steels D 706
with white matter lesions D 698
with front serene govern D 686
with median family income D 679
with eight copper plates D 649
with plain melted butter D 648
with which public policy D 626
with white cotton gloves D 622
with gross cystic disease D 614
with playing second fiddle D 604
with world public opinion D 592
with white fleecy clouds D 588
with legal person status D 571
with which humble lovers D 554
with rough strife through D 548
with major policy issues D 548
with first nations peoples D 540
with round corner towers D 539
with large muscle groups D 520
with which carbon dioxide D 510
with about twenty pounds D 500
with renal disease should D 498
with broad policy issues D 496
with fingers pointing toward D 490
with black flight feathers D 472
with total family income D 468
with every modern luxury D 460
with fever without source D 458
with strong reducing agents D 456
with white glazed bricks D 454
with renal artery disease D 444
with large standing armies D 444
with which nature adorns D 440
with either normal saline D 429
with which authors solace D 424
with first person plural D 422
with fewer native assets D 418
with small broken stones D 416
with lower income groups D 416
with longer carbon chains D 412
with serum sodium levels D 406
with small wooden houses D 402
with every muscle tensed D 400
with black velvet lapels D 382
with fingers pointing upward D 376
with still keener relish D 374
with cleft palate speech D 374
with drawn swords through D 372
with quick upward thrusts D 370
with white marble floors D 362
with breast cancer showed D 362
with false number plates D 360
with light fleecy clouds D 358
with large starch grains D 358
with human rabies immune D 356
with social policy issues D 354
with local church leaders D 352
with either carbon dioxide D 352
with white wicker chairs D 350
with fresh ground pepper D 350
with baked enamel finish D 345
with women screaming before D 338
with white towels swelling D 334
with short carbon chains D 334
with changing public opinion D 334
with small square stones D 324
with local public opinion D 320
with water before drinking D 318
with white fluffy clouds D 316
with drawn swords behind D 316
with strong sexual desire D 312
with selling liquor without D 308
with azure starry spaces D 304
with added carbon dioxide D 304
with about twenty houses D 300
with lower energy levels D 296
with about twelve inches D 294
with white clouds floating D 290
with lower initial levels D 290
with lower family income D 288
with local tribal leaders D 288
with serum lithium levels D 286
with palms turned upward D 282
with small airway disease D 276
with sound fiscal policy D 274
with hands meekly folded D 270
with local opinion leaders D 268
with large wooden spoons D 268
with plain wooden chairs D 266
with white cowrie shells D 264
with small muscle groups D 264
with about twenty million D 263
with renal cystic disease D 260
with manly strength endued D 254
with fixed cardiac output D 254
with linear demand curves D 253
with large public sector D 252
with major record labels D 251
with water before entering D 250
with grace divine imbued D 250
with white muscle disease D 248
with lower status groups D 242
with which soviet leaders D 240
with small square scales D 236
with small angular scales D 234
with holding public office D 234
with gross annual income D 234
with rather widely spaced D 232
with strong verbal skills D 228
with small starch grains D 228
with large stones placed D 228
with large atomic number D 228
with still greater terror D 226
with major sporting events D 226
with stock market prices D 224
with rapid thermal annealing D 223
with major thermal injury D 220
with lower stress levels D 218
with lower atomic number D 218
with boiling points higher D 218
with strong sexual drives D 216
with small window openings D 216
with large breasts prefer D 216
with broad golden clasps D 216
with which public sector D 214
with strong aqueous ammonia D 213
with strong sexual feelings D 210
with minor drafting changes D 210
with dense virgin forest D 209
with white cotton sheets D 208
with small openings through D 208
with cleft palate should D 208
with large retail chains D 206
with large angular blocks D 206
with whole garlic cloves D 204
with which recent events D 204
with small cystic spaces D 204
with liver damage should D 204
with liver disease without D 202
with fresh medium without D 202
with paper towels soaked D 200
with legal tender status D 200
with black blasting powder D 200
with smooth muscle tumors D 198
with local public policy D 198
with every hideous result D 198
with drawn swords rushed D 196
with acute watery diarrhea D 196
with sharp oyster shells D 194
with minor verbal changes D 194
with black cotton gloves D 193
with still higher levels D 192
with renal pelvic tumors D 192
with large square bricks D 190
with major policy changes D 189
with molding public opinion D 188
with blood levels greater D 188
with acute severe aortic D 188
with which nuclear weapons D 186
with which nelson fought D 186
with drawn swords flashing D 186
with daily dressing changes D 186
with varying income levels D 184
with steep wooded slopes D 184
with drawn swords before D 184
with blood coursing through D 184
with small nuclear weapons D 183
with small flanking towers D 181
with light spinning tackle D 180
with broad golden pieces D 180
with acute stroke treated D 180
with upper airway disease D 178
with faces turned upward D 178
with large carious lesions D 176
with boiling points greater D 176
with total annual income D 174
with tapping tinkling quills D 174
with eight colour plates D 174
with acute mental status D 174
with small keeled scales D 172
win world public opinion D 172
with water before staining D 170
with serum levels greater D 170
with black glazed canvas D 170
with which plunged bodies D 168
with smooth muscle tissue D 168
with small wooden sticks D 168
with short inviting thrusts D 168
with large window openings D 166
with fifty pounds weight D 166
with china fences around D 166
with still louder shouts D 164
with mouths widely opened D 164
with lower plasma levels D 164
with teeming waters yonder D 163
with fresh stable manure D 162
with hands cuffed behind D 161
with which fiscal policy D 160
with strong curved spines D 160
with stern reasoning powers D 160
with small floral motifs D 160
with short fallow periods D 160
with motor cortex lesions D 160
with small peasant holdings D 158
with shaping public opinion D 158
with people drinking coffee D 158
with black copper cement D 158
with state policy makers D 156
with small singular values D 156
with scant notice through D 156
with rusty willow bushes D 156
with local planning boards D 156
with large wooden wheels D 156
with roaring voices strike D 154
with lower airway disease D 154
with white marble inlaid D 152
with which theology strove D 152
with water before spraying D 152
with slats nailed across D 152
with leather straps around D 152
with china inland mission D 152
with small stones placed D 150
with sharp bamboo stakes D 150
with melting points higher D 150
with large dipole moment D 150
with about eighty pounds D 150
with people crowding around D 149
with senior policy makers D 148
with lemon slices floating D 148
with large retail stores D 148
with green window blinds D 148
with fewer anchor points D 148
with equal visual acuity D 148
with which nelson became D 146
with which martial begins D 146
with which courts should D 146
with nasal polyps should D 146
with light entering through D 146
with large square towers D 146
with large hollow blocks D 146
with falling export prices D 146
with every modern gadget D 146
with breast cancer without D 146
with about twelve million D 146
with metal window frames D 145
with thinly sliced apples D 144
with small sticks instead D 144
with small mucous glands D 144
with hands cupped around D 144
with every safety device D 144
with color duplex scanning D 143
with moist carbon dioxide D 142
with large quartz grains D 142
with large potted plants D 142
with blood ethanol levels D 142
with small stones inside D 141
with trade policy reform D 140
with state planning boards D 140
with plain nonfat yogurt D 140
with lower staffing levels D 140
with large swelling calves D 140
with brain tumors treated D 140
with black female slaves D 140
with others better suited D 139
with fresh tomato slices D 139
with world market levels D 138
with which little boarding D 138
with which church leaders D 138
with mixed venous oxygen D 138
with mixed feelings timothy D 138
with close joints filled D 138
with breast cancer through D 138
with black cotton velvet D 137
with white talcum powder D 136
with sharp bamboo spikes D 136
with lower strike prices D 136
with acute sulfur dioxide D 136
with whose golden blooms D 134
with small wooden wedges D 134
with broad public policy D 134
with human labour render D 133
with which school boards D 132
with senior middle school D 132
with creaky wooden floors D 132
with water before planting D 131
with white markings clearly D 130
with still softer titles D 130
with newly learned skills D 130
with crime without revenge D 130
with cleats nailed across D 130
with about twenty slaves D 130
with trade policy issues D 128
with round flanking towers D 128
with neatly folded clothes D 128
with halos around lights D 128
with extra grated cheese D 128
with which native peoples D 126
with strong picket fences D 126
with lower carbon dioxide D 126
with labor market policy D 126
with first nations groups D 126
with faint praise indeed D 126
with every police station D 126
with which various dishes D 124
with which modern nations D 124
with which little scraps D 124
with small claims courts D 124
with acute cardiac disease D 124
with which nelson chased D 122
with water lilies floating D 122
with theater nuclear forces D 122
with major sports events D 122
with fresh wounds bleeding D 122
with flies swarming around D 122
with every parish priest D 122
with ozone yields another D 120
with horns sounding before D 120
with frank porter graham D 120
with every luxury around D 120
with white collar crimes D 118
with tight fiscal policy D 118
with strong public opinion D 118
with large stokes shifts D 118
with dried flower petals D 118
with acute stroke should D 118
with basic skills training D 117
with which radiant energy D 116
with which policy changes D 116
with water entering through D 116
with small angular stones D 116
with lower initial scores D 116
with fifty golden ducats D 116
with empty window arches D 116
with bolts before riveting D 116
with boiling dilute alkali D 116
with acute bloody diarrhea D 116
with paper pounds sterling D 115
with white wooden houses D 114
with shape memory alloys D 114
with lower oxygen levels D 114
with local tissue damage D 114
with local estate agents D 114
with extra carbon dioxide D 114
with cleft palate repair D 114
with changing market trends D 114
with water sloshing around D 113
with peanut butter frosting D 113
with strong convex lenses D 112
with social issues through D 112
with small stakes driven D 112
with renal artery lesions D 112
with palms turned toward D 112
with minor design changes D 112
with loose sexual morals D 112
with lipid lowering agents D 112
with large wooden crates D 112
with large unsold stocks D 112
with large timber holdings D 112
with large silver plates D 112
with known thyroid disease D 112
with acute spinal injury D 112
with sharp wooden stakes D 110
with large sexual organs D 110
with fewer nuclear weapons D 110
with faint praise bishop D 110
with every little breeze D 110
with small cobble stones D 108
with people hurrying toward D 108
with pains shooting through D 108
with nearly twenty million D 108
with major retail chains D 108
with human ovarian cancer D 108
with green pepper strips D 108
with every little flower D 108
with eight chairs around D 108
with which nurses should D 106
with strong public policy D 106
with small retail stores D 106
with small quartz grains D 106
with loose broken flints D 106
with large arched openings D 106
with inert carbon dioxide D 106
with human rights policy D 106
with fresh candid smiles D 106
with acute spinal trauma D 106
with water dripping through D 104
with strong public sector D 104
with small fleecy clouds D 104
with major public policy D 104
with lower retail prices D 104
with liver disease caused D 104
with large floral motifs D 104
with black arrows pointing D 104
with white canvas covers D 103
with hands piously folded D 103
with which modern theology D 102
with water before freezing D 102
with solar proton events D 102
with money market dealers D 102
with gauze sponges soaked D 102
with fewer glancing lights D 102
with falling coffee prices D 102
with every passion blending D 102
with every endearing epithet D 102
with either normal rabbit D 102
with changing photon energy D 102
with which thermal energy D 100
with which factor inputs D 100
with tight straps across D 100
with solar active regions D 100
with newly formed tissue D 100
with lower ticket prices D 100
with local tribal chiefs D 100
with local policy makers D 100
with fresh medium before D 100
with blunt cardiac injury D 100
with about eleven million D 100
with about eighty houses D 100
with white church spires D 99
with women should infect D 98
with white pebbly shores D 98
with which postal clerks D 98
with water swirling around D 98
with theater nuclear weapons D 98
with still greater fervor D 98
with small openings called D 98
with seven swords piercing D 98
with large pebble stones D 98
with known kidney disease D 98
with fresh spruce boughs D 98
with fresh normal plasma D 98
with every gentle breeze D 98
with blunt cardiac trauma D 98
with acute diarrhea should D 98
with which french troops D 96
with telling effect before D 96
with solid tumors treated D 96
with smoke escaping through D 96
with small square towers D 96
with polar mobile phases D 96
with peanut butter smeared D 96
with overt thyroid disease D 96
with large ashlar blocks D 96
with hands linked behind D 96
with fresh brewed coffee D 96
with changing market prices D 96
with broad golden slopes D 96
with black willow plumes D 96
with black dorsal stripe D 96
with about twenty wagons D 96
with whose thrifty matron D 94
with which soviet policy D 94
with which oxygen unites D 94
with which modern weapons D 94
with strong square towers D 94
with small bamboo sticks D 94
with party leaders before D 94
with nearly twelve million D 94
with lower freezing points D 94
with longer fallow periods D 94
with leather straps across D 94
with faint darker markings D 94
with drawn weapons waited D 94
with civil rights policy D 94
with breast cancer report D 94
with brain tissue damage D 94
with ample square skirts D 94
with white clouds scudding D 92
with water before sweeping D 92
with stone barrel vaults D 92
with rough cobble stones D 92
with putty before painting D 92
with green willow bushes D 92
with eight matching chairs D 92
with black velvet trimming D 92
with black streaks across D 92
with about twelve troops D 92
with water pumped through D 91
with which visual acuity D 90
with which united nations D 90
with which public scenes D 90
with steep wooded shores D 90
with spare shawls always D 90
with small square openings D 90
with small angular spaces D 90
with sharp points turned D 90
with round cookie cutter D 90
with large ovarian tumors D 90
with large deeply staining D 90
with known ovarian cancer D 90
with grave doubts whether D 90
with dusky mantle covers D 90
with cords passed through D 90
with breast cancer silent D 90
with about twelve guineas D 90
with white markings around D 88
with small deeply staining D 88
with short swords almost D 88
with plain french dressing D 88
with large pollen grains D 88
with knees almost touching D 88
with fresh sliced peaches D 88
with breast cancer tended D 88
with which whites viewed D 86
with waste carbon dioxide D 86
with glaring lights invading D 86
with changing market demand D 86
with causing actual bodily D 86
with brick infill panels D 86
with boiling glacial acetic D 86
with black markings around D 86
with after dinner drinks D 86
with above twenty cannon D 86
with which former slaves D 84
with water before weighing D 84
with still higher speeds D 84
with steel gusset plates D 84
with small diesel engines D 84
with sharp wooden spikes D 84
with sharp stakes driven D 84
with really manful notions D 84
with peanut butter instead D 84
with newly coined oyster D 84
with local tribal groups D 84
with local credit bureaus D 84
with glass panels through D 84
with every sordid detail D 84
with black pepper before D 84
with awful august heroic D 84
with which cancer occurs D 82
with strong reducing powers D 82
with still another series D 82
with sharp bamboo sticks D 82
with roaring rounds tossed D 82
with loose fiscal policy D 82
with large spreading crowns D 82
with large nuclear charge D 82
with fresh ground coffee D 82
with china through canton D 82
with black velvet drapes D 82
with about twenty rangers D 82
with which public office D 80
with state police forces D 80
with small covers shutting D 80
with round stones washed D 80
with round marble tables D 80
with large silver clasps D 80
with falling copper prices D 80
with every tender emotion D 80
with white enamel finish D 72
with strong cement mortar D 60
with steep bottom slopes D 52
with acute rectal bleeding D 51
with which nature paints D 50
with large yellow flower D 47
with steel window frames D 46
with angels hovering around D 45
with eight evenly spaced D 43
with boiling dilute nitric D 40
