men should honour the M 5318
men passed through the M 5244
mean annual number of M 4218
men without regard to M 3976
mean monthly values of M 3658
mean square errors of M 3225
men walked through the M 3146
mean square values of M 3053
men standing around the M 2990
men should always be M 2894
mean annual values of M 2274
men walked toward the M 2118
mean something special to M 1812
men walked across the M 1636
mean square source of M 1590
mean annual amount of M 1485
men should return to M 1440
men turned toward the M 1370
men differ greatly in M 1286
men always seemed to M 1200
men stayed behind to M 1166
men walked around the M 1162
men should follow the M 1130
men differ widely in M 1114
men should remain in M 1051
men standing behind the M 1044
men standing before the M 1040
men pushed through the M 1036
men should refuse to M 1022
meat should always be M 1016
men standing beside the M 998
men rushed through the M 984
men standing around in M 928
men rushed toward the M 852
men should beware of M 840
men already engaged in M 840
men poured through the M 802
men worked through the M 794
men should desire to M 778
men looked toward the M 720
men worked around the M 716
men better fitted to M 668
mean something closer to M 651
men rushed across the M 644
men seemed unable to M 634
men gained access to M 634
mean little unless the M 633
men should submit to M 624
meal should always be M 585
men looked across the M 580
mean square errors in M 579
mean something beyond the M 564
men always wanted to M 552
mean values should be M 536
mean monthly number of M 536
mean little without the M 532
men simply looked at M 518
men should behave in M 518
men looked around the M 498
men should aspire to M 488
men without clothes to M 484
men should choose to M 474
men should arrive at M 470
men should remain at M 460
men turned around to M 458
men walked beside the M 454
men looked around at M 444
mean normal stress is M 440
men merely looked at M 418
men should happen to M 416
men should accept the M 414
men joined forces to M 414
men looked through the M 402
mean little unless we M 402
men standing around it M 396
men thought little of M 392
men standing around me M 386
men should resort to M 386
mean energy intake of M 381
men wander through the M 378
men seemed anxious to M 378
men became active in M 358
mean without regard to M 349
mean excess return of M 343
men joined forces in M 336
men should differ in M 332
men highly placed in M 328
mean higher prices to M 325
men should occupy the M 324
men standing around on M 320
men deeply engaged in M 320
men standing across the M 318
men safely through the M 318
men standing beside it M 314
men gathering around the M 314
mean annual volume of M 309
men should attain to M 308
men seemed always to M 308
men should always do M 306
men should become the M 302
men became engaged in M 298
mean values across the M 298
men passed through it M 294
men wicked enough to M 292
men simply wanted to M 288
men should attend to M 286
men safely across the M 286
men walked behind the M 284
men hidden behind the M 284
men except through the M 282
mean square should be M 263
men should prefer to M 260
men should listen to M 260
men walked toward me M 258
men should relate to M 256
men should attend the M 254
men without honour or M 248
men should assume the M 246
men rarely attain the M 246
mean number number of M 245
men standing behind me M 244
men relied heavily on M 244
mean values listed in M 244
men should remain on M 243
mean greater access to M 241
men sooner forget the M 240
men should perish by M 236
mean normal stress am M 235
mean annual supply of M 234
men without family or M 232
men differ little in M 230
men always looked at M 230
mean little unless it M 229
men sought safety in M 228
men always raised the M 228
men simply refuse to M 226
men seemed almost to M 226
men without master or M 224
men standing inside the M 224
men should adhere to M 222
men looked around in M 222
men should expect to M 220
men posted around the M 220
mean little enough to M 220
men thought proper to M 218
men deeply learned in M 216
men stayed behind in M 212
men appearing before the M 212
men should remove the M 210
men should pursue the M 210
men kneeling before the M 210
men greater access to M 210
men became afraid to M 210
men became afraid of M 208
mean values instead of M 208
mean initial weight of M 208
men without access to M 206
mean weekly number of M 202
men should repent of M 200
men should govern the M 200
men deeply rooted in M 200
mean square number of M 200
men standing beside me M 198
men should prefer the M 198
men should chance to M 196
men fought through the M 194
men clearly occupy the M 194
meal passes through the M 194
mean weight losses of M 193
mean little except to M 193
men should realize the M 190
men looked around to M 190
men standing around to M 188
men should regard the M 188
men crawling through the M 188
mean normal stress in M 187
men thought highly of M 186
men should remain as M 186
men standing before me M 184
mean annual output of M 184
mean annual totals of M 182
men without training or M 180
men walked slowly to M 180
men walked around to M 180
men should object to M 180
men became anxious to M 180
men walked across to M 178
mean actions hinted at M 178
men without talent or M 176
mean normal stress at M 176
men depend solely on M 174
mean stress effect on M 174
men varied greatly in M 172
mean serious injury or M 171
mean normal stress on M 169
mean excess return on M 168
mean should always be M 167
men toiled through the M 166
men should labour to M 166
men should choose the M 164
men walked slowly up M 162
men needed something to M 162
men should perish in M 160
men should behave as M 160
men should attack the M 160
men passed around the M 160
mean square equals the M 160
men without appearing to M 158
meat almost through the M 158
mean annual return of M 158
mean should neither be M 157
men without thought of M 156
men proved unable to M 156
men behold merely the M 156
men should accept it M 154
men become locked in M 154
men become united in M 152
men turned toward me M 150
men turned eagerly to M 150
men should regard as M 150
men stupid enough to M 148
men simply failed to M 148
men should suffer in M 148
men should depend on M 148
men poured across the M 148
mean impact strength of M 148
men without counting the M 146
men watching through the M 146
men walked around in M 146
men walked always in M 146
men should regard it M 146
meat without regard to M 146
mean square errors as M 145
mean energy stored in M 144
mean square values in M 143
men without injury to M 142
men should enlist in M 142
men seemed likely to M 142
men seemed intent on M 142
men always follow the M 142
mean serious damage to M 138
men thought better of M 136
men should answer the M 136
men looked beyond the M 136
men became unable to M 136
men buried before us M 134
men became owners of M 134
men always choose the M 134
mean little except as M 134
men showed tricks of M 132
men should escape the M 132
men posted behind the M 132
men belongs wholly to M 132
men became expert in M 132
men always behold in M 132
men worked behind the M 130
men swimming across the M 130
men should suffer the M 130
men should suffer an M 130
men labour therein to M 130
men standing around us M 128
men always prefer the M 128
men already active in M 128
men strict orders to M 126
men standing behind it M 126
men standing around an M 126
men should decide to M 126
men should behave to M 126
men passed before the M 126
men mature enough to M 126
men looked around as M 126
men without violating the M 124
men should profit by M 124
men passed beyond the M 124
men differ widely as M 124
men became jealous of M 124
meat should remain in M 124
men showed itself in M 122
men should repair to M 122
men needed speech in M 122
men honest enough to M 122
mean values through the M 122
mean better access to M 122
men should hasten to M 120
men should desire it M 120
men looked across at M 120
mean annual figure of M 120
men should obtain the M 118
men looked keenly at M 118
men before spoken of M 118
meal passed almost in M 118
men walked toward us M 116
men standing nearest to M 116
men simple enough to M 116
men should labour in M 116
men should follow in M 116
men become kindly by M 116
men became famous in M 116
meat market across the M 116
meal itself should be M 116
men should suffer so M 114
men should retain the M 114
men pushed across the M 114
men fighting across the M 114
men behave better on M 113
men walked beside it M 112
men travel through the M 112
men should report to M 112
men freely choose to M 112
men around issues of M 112
men wonder whether the M 110
men streaming across the M 110
men standing behind us M 110
men should insist on M 110
men should forget the M 110
men should divide the M 110
men prefer virtue to M 110
men closed around the M 110
men became famous as M 110
men always worked in M 110
men should remain to M 108
men should differ so M 108
men became caught up M 108
men always manage to M 108
mean little without an M 108
meal before another is M 108
men sought vainly to M 106
men seemed pleased to M 106
men become guilty of M 106
mean square charge of M 106
men should become so M 104
men pushed through to M 104
men passed slowly in M 104
men gently lifted the M 104
men become expert in M 104
men stayed inside the M 102
men should travel in M 102
men seldom choose to M 102
men seemed hardly to M 102
men killed already in M 102
men circle around the M 102
men become unable to M 102
men should reject the M 100
men killed before the M 100
men always desire the M 100
men already inside the M 100
mean stress across the M 100
mean normal values of M 100
mean energy needed to M 100
men should handle the M 98
men denied access to M 98
men became fearful of M 98
men became almost as M 98
mean annual strength of M 98
men stayed behind at M 96
men should commit no M 96
men should assist the M 96
men seemed afraid to M 96
men became locked in M 96
mean square errors is M 96
mean serious injury to M 96
mean annual yields of M 96
mean square measure of M 95
men walked inside the M 94
men should depart the M 94
men placed around the M 94
men merely wanted so M 94
men formed around the M 94
men follow nature no M 94
men fairly seemed to M 94
men before starting on M 94
men almost always do M 94
men across before it M 94
mean square energy of M 94
men waited behind the M 92
men needed someone to M 92
men looked strange on M 92
men hunted through the M 92
meat passes through the M 92
meat itself should be M 92
mean little indeed if M 92
meal before starting on M 92
mean square output of M 91
men varied widely in M 90
men picked through the M 90
men merely wanted to M 90
men carrying pieces of M 90
men became expert at M 90
men always prefer to M 90
men already spoken of M 90
mean higher prices in M 90
mean annual changes in M 90
men rushed around the M 88
men hardly breathed in M 88
men eagerly awaiting the M 88
men become afraid of M 88
mean another couple of M 88
mean little except in M 87
men without breeding or M 86
men turned around in M 86
men stayed through the M 86
men seldom failed to M 86
men reached across the M 86
men learned something of M 86
men climbing through the M 86
mean sample values of M 86
mean higher prices of M 86
men always insist on M 85
men streaming toward the M 84
men standing beside an M 84
men standing around at M 84
men should assist in M 84
men seemed pleased at M 84
men rushed toward it M 84
men passed through my M 84
men passed through in M 84
men openly defiant of M 84
men learned enough to M 84
men combed through the M 84
men always retain the M 84
men worked mainly in M 82
men wholly devoid of M 82
men stayed around the M 82
men should secure the M 82
men should arrive in M 82
men seldom arrive at M 82
men remain behind to M 82
men proved guilty of M 82
men greatly exceed the M 82
men around through the M 82
men always return to M 82
men already united by M 82
men across before the M 82
mean normal volume of M 82
men suffer whilst the M 80
men reached through the M 80
men passes through the M 80
men engaged solely in M 80
men bursting through the M 80
men attain enough of M 80
mean values depend on M 80
men should become as M 73
men inside pulled up M 54
mean proper motions of M 48
mean something special in M 47
mean something special by M 47
mean something belonging to M 47
mean monthly values in M 42
mean square radius of D 4403
mean annual income of D 2546
men should strive to D 1810
mean atomic weight of D 1770
mean plasma levels of D 1561
mean family income of D 1448
men busily engaged in D 1422
mean atomic number of D 1293
mean thermal energy of D 1263
mean family income in D 1163
mean hourly values of D 1125
men sought refuge in D 988
mean annual runoff of D 877
mean monthly income of D 840
men marching through the D 828
men scored higher on D 802
mean annual salary of D 758
mean higher levels of D 700
met another member of D 684
men deeply versed in D 630
men pleaded guilty to D 602
men crashing through the D 580
men dashed through the D 522
mean scores across the D 515
men danced around the D 512
mean family income is D 486
men milled around the D 480
men screaming through the D 450
men become lovers of D 432
mean annual runoff is D 432
met without regard to D 424
men peered through the D 422
men hooted angrily at D 408
mean starting salary of D 391
men crowding around the D 390
mean annual biomass of D 389
men stared across the D 378
mean factor scores of D 362
met another friend of D 354
men readily listen to D 350
men dashed across the D 346
men better suited to D 346
mean dipole moment of D 314
men lounged around the D 306
met without resort to D 296
mean annual runoff in D 290
mean atomic weight is D 286
mean weekly income of D 270
meat roasting before the D 268
men creeping through the D 266
mean annual income is D 261
met mainly through the D 260
men roamed through the D 258
men sailed across the D 256
men become slaves to D 256
mean photon energy of D 256
men hurrying through the D 254
men should solder up D 252
men clever enough to D 248
mean annual income in D 247
men marching across the D 244
men strode through the D 240
men marching toward the D 240
mean timber whereof to D 240
mean square height of D 238
men became leaders of D 236
men became leaders in D 228
mean photon number of D 228
men trudging through the D 226
men milled around in D 226
men talked openly of D 224
men before entering the D 222
met without violating the D 220
men talked through the D 216
men always employ it D 216
mean annual height of D 212
men simply stared at D 210
meat wafted through the D 210
meal snacks should be D 209
men surged through the D 208
mean crushing strength of D 206
men tramping through the D 204
men readily agreed to D 202
mean photon number in D 202
men sexual access to D 200
men desire empire in D 200
mean thermal energy is D 194
mean monthly height is D 194
mean square radius is D 193
met little groups of D 192
men surged toward the D 192
men slowly rolled the D 188
men better versed in D 186
mean photon number is D 186
mean oxygen tension in D 186
mean nuclear volume of D 186
men plunged through the D 184
men strode across the D 180
men hurrying toward the D 180
men little versed in D 176
meg looked around the D 172
men roosting gingerly on D 170
men talked freely of D 168
men rolled across the D 168
men jumped aboard the D 168
men become wolves on D 164
met before entering the D 162
men danced before the D 162
mean visual acuity of D 162
mean income levels of D 162
mean dollar amount of D 162
meal before retiring to D 162
mean photon energy is D 158
men prowling around the D 156
men sailed around the D 154
met almost wholly by D 152
met before sunset in D 150
men skulking behind the D 148
mean atomic volume of D 148
men should assent to D 144
men surged across the D 142
men strode toward the D 142
mean oxygen uptake of D 142
men swarming around the D 140
men parade through the D 140
mean family income by D 140
mean factor scores on D 140
met partly through the D 138
men parading through the D 138
men eagerly jumped on D 138
met except through the D 136
men looked dubious at D 136
men hurrying across the D 136
men flocking around me D 136
mean scores tended to D 136
mean cardiac output of D 134
mean atomic number is D 133
men scored higher in D 132
men looked longingly at D 132
men hovering around the D 132
meal without cheese is D 130
mean annual runoff at D 127
men talked freely to D 126
met without reducing the D 124
mean monthly salary of D 124
men should wallow in D 122
men drinking coffee in D 122
met through changes in D 118
men driven insane by D 118
mean dipole moment is D 118
met solely through the D 116
men recede before an D 116
met various groups of D 114
met merely through the D 114
men slipping through the D 114
men shooting arrows at D 114
mean oxygen tension of D 114
men camped around the D 112
mean scores should be D 112
mean radius vector of D 111
men merely stared at D 110
men marching behind the D 110
meal before entering the D 108
meat dishes should be D 107
mean annual height at D 106
men stared through the D 104
men packed chunks of D 104
mean family income to D 104
men should render to D 102
men already smells of D 102
men sifted through the D 100
men expect grapes of D 100
men ducked behind the D 100
men closed shield to D 100
mean square speeds of D 98
mean annual salary is D 98
men looked aghast at D 96
mean monthly income in D 96
met another person in D 94
men lagged behind the D 94
men employ bodies of D 94
men crowding through the D 94
men barged through the D 94
meat scraps should be D 94
men struck across the D 92
men crowding around is D 92
men became slaves to D 92
mean annual runoff as D 92
men rolled around on D 90
men plunged across the D 90
men rolled through the D 88
men marching around the D 88
men charging through the D 88
men charging across the D 88
mean values tended to D 88
men shrewd enough to D 86
men plowed through the D 86
men huddle around the D 86
men chatting across the D 86
mean hourly motions of D 86
men swarming through the D 84
men sought refuge on D 84
men seizes firmly on D 84
men readily assent in D 84
men lounged around in D 84
men drinking coffee at D 84
men dashed toward the D 84
men became allied to D 84
met without changes in D 82
men varies greatly in D 82
men submit meekly to D 82
men should starve or D 82
men lovingly desire to D 82
men looked darkly in D 82
men bolted through the D 82
meal before boarding the D 80
mean little houses of D 50
meat dishes cooked in D 45
mean annual levels of D 44
