later became famous for M 4941
later events proved that M 3323
later events showed that M 2562
later joined forces with M 2036
large vessel filled with M 1466
large square building with M 1182
large enough market for M 1148
large enough sample for M 1106
later become famous for M 1036
large crowds turned out M 996
label before applying any M 863
labor market trends and M 842
large spaces filled with M 794
large market shares and M 750
large public meetings and M 744
large eastern cities and M 634
large building filled with M 608
later became obvious that M 607
large garden filled with M 568
labor market demand for M 552
labor market supply and M 516
large excess demand for M 512
large wooden building with M 504
labor market demand and M 458
large market shares are M 452
later another letter was M 450
large window looked out M 446
labor market reform and M 442
later events proved this M 433
large circle around them M 408
large circle around him M 408
large market exists for M 398
later report stated that M 378
large measure through his M 376
labor became scarce and M 374
labor market issues and M 358
later events proved him M 344
later became famous and M 340
lands should remain with M 330
later become filled with M 318
labor market theories and M 314
large united states and M 304
large enough number for M 298
large family groups and M 294
large public demand for M 286
labor market changes and M 284
later became editor and M 282
large square filled with M 282
large enough demand for M 272
labor market changes that M 272
large cities showed that M 269
large modern building with M 266
later became filled with M 258
large proper motions are M 258
later events proved how M 256
large number killed and M 256
labor supply models using M 254
large window filled with M 248
later report states that M 243
large training school for M 240
large enough sample and M 240
labor market training and M 234
later turned around and M 232
later proved useful for M 230
large cities should not M 226
large sampling errors and M 220
later another battle was M 218
large window behind his M 218
large enough almost for M 218
large school system with M 216
later became models for M 214
large school system and M 214
large demand exists for M 214
large without violating any M 212
large format camera and M 212
large screen behind him M 210
large public school and M 210
large latent demand for M 210
large window behind him M 208
later another effort was M 206
later another attack was M 204
later taught school for M 200
large wooden building that M 200
large market demand for M 200
large family around him M 200
large vessel disease and M 198
large public building with M 190
labor market forces and M 190
large volume changes with M 188
labor market should not M 188
large volume filled with M 186
large sample volume and M 186
large public school for M 186
large public building was M 186
large family circle and M 184
large wooden tables and M 182
large school building was M 182
large family behind him M 182
large school system can M 180
large measure through its M 180
large energy losses and M 180
large school system may M 172
large vessel loaded with M 162
labor market before they M 160
large school building and M 158
large safety margin for M 158
large ground forces and M 158
large building blocks and M 158
large number turned out M 157
labor market forces are M 156
large proper motions and M 154
large volume changes that M 151
later became merged with M 150
large enough volume for M 148
large enough sample can M 146
later events proved them M 144
large school system has M 144
large circle around her M 144
labor market without any M 144
later report showed that M 142
large square window was M 140
large school building with M 140
later another church was M 138
large building standing near M 138
large wooden building was M 136
large public spaces and M 136
label clearly states that M 136
later taught school and M 134
large wooden building and M 134
large animal models and M 134
later became famous was M 132
large public square and M 132
large format camera with M 132
large enough sample that M 132
large damage awards for M 132
lands without regard for M 132
labor without regard for M 132
large circle filled with M 130
large volume changes are M 128
large safety factor for M 128
large public meetings with M 128
labor market shifts and M 128
large orders placed with M 126
large enough margin for M 126
labor market trends that M 126
large public meetings that M 124
large labour supply and M 124
large united states map M 123
large family around her M 122
large enough without being M 122
large cavern filled with M 122
later became common for M 120
large window behind her M 120
later became united with M 118
large school system was M 118
large public building that M 118
large family groups with M 118
large family gathering and M 118
large enough market and M 118
large church building was M 118
large family groups that M 117
large enough number that M 117
large random sample was M 116
large public spirit and M 116
later became insane and M 114
later actions showed that M 114
large public meetings are M 114
large modern building that M 114
large market shares may M 114
later another report was M 112
large united states air M 112
large square building that M 112
large public school with M 112
large goblet filled with M 112
large garden beside this M 112
labor market searching for M 112
later another school was M 110
large screen behind her M 110
large school building for M 110
large damage awards are M 110
later another demand was M 108
large public building and M 108
large market shares for M 108
large enough training set M 107
large number without any M 106
large eastern cities are M 106
lands already cleared and M 106
labor market crisis and M 106
large safety margin and M 104
large member states and M 104
large vessel fitted with M 102
large family system and M 102
large common market and M 102
large cities filled with M 102
large church building and M 102
labor market earlier than M 102
labor market issues that M 101
large family groups are M 100
large damage awards and M 100
labor market access and M 100
later changed course and M 98
large volume changes and M 98
large modern cities and M 98
large enough sample was M 98
later became famous had M 96
later another building was M 96
large number stated that M 96
large market without due M 96
large labour forces and M 96
large formal meetings sit M 96
large enough without this M 96
large measure created and M 94
large enough sample has M 94
later writer states that M 93
large lovely bribes are M 92
large cities except for M 92
later became famous with M 90
large safety factor and M 90
large modern plants and M 90
large frames filled with M 90
large family without any M 90
large bodies without any M 90
later become larger and M 88
large public meetings for M 88
large market square and M 88
large formal garden with M 88
large church building with M 88
labor market trends are M 88
later stages passion had M 86
large standing forces and M 86
large public issues and M 86
large public events and M 86
large enough values for M 86
large public school can M 84
large formal garden and M 84
labor market changes are M 84
large future market for M 82
large enough without them M 82
later events turned out M 81
large wooden building for M 80
large modern building and M 80
large cities without any M 80
large school system that M 52
later events showed how M 50
labor market reform that M 44
labor market forces that M 42
large market shares that M 41
later source states that M 40
large cities report that M 40
large basket filled with D 2028
labor market policy and D 2006
large standing armies and D 1904
large public sector and D 1894
large muscle groups and D 1670
large cavity filled with D 1022
large muscle groups are D 982
large estate owners and D 878
large standing armies are D 784
large muscle groups for D 780
large landed estate and D 658
labor supply curves are D 616
large export market for D 598
labor market policy was D 566
large dipole moment and D 560
labor market policy has D 554
large spatial scales and D 534
large retail chains and D 534
large office building and D 524
large retail stores and D 520
labor market status and D 508
large bottle filled with D 492
large wooden mortar and D 488
labor market policy that D 448
large kettle filled with D 436
landing allied armies this D 434
large muscle groups that D 417
labor leaders argued that D 411
later middle bronze age D 406
large bucket filled with D 398
large shopping center and D 392
large office building with D 392
labor market skills and D 388
large cookie sheets with D 382
large starting torque and D 374
later prince regent and D 373
labor demand curves are D 370
large boarding school for D 368
large french window that D 360
large estate owners who D 328
large stroke volume and D 324
labor supply curves for D 322
large wicker basket and D 318
large wicker basket with D 300
labor market policy are D 300
labor demand curves for D 294
labor leaders called for D 290
large wooden mortar with D 288
large corner office with D 286
large closet filled with D 268
lance driven through his D 264
large muscle masses and D 254
large standing armies that D 248
large extent through his D 244
large trough filled with D 242
large trunks filled with D 238
large public sector that D 235
later survey showed that D 230
large public sector with D 230
large extent without any D 230
later allied itself with D 229
layer plates coated with D 228
large chests filled with D 228
large retail stores are D 226
later pleaded guilty and D 222
large shopping center with D 222
large landed estate was D 220
large initial outlay for D 218
large retail chains that D 215
large public sector was D 212
large diesel engines and D 212
large office building was D 210
large wagons loaded with D 208
laser thermal energy with D 207
large walled garden and D 204
large barrel filled with D 204
labor market policy for D 204
laser scanning system for D 202
large venous trunks are D 202
large public sector has D 200
large office building for D 200
large retail chains are D 198
lands better suited for D 194
large walled garden with D 192
large extent linked with D 192
labor market policy can D 190
large office building that D 189
large needle threaded with D 186
large basins filled with D 184
labor supply curves and D 184
large retail stores that D 176
large flower garden and D 174
large extent filled with D 174
large trucks loaded with D 172
large shopping center near D 170
large wooden pestle and D 168
large potted plants and D 168
large wooden houses with D 166
large standing armies for D 166
large silver dollar and D 166
large office blocks and D 166
large houses filled with D 166
large hollow blocks and D 166
later became linked with D 162
large wooden crates and D 162
large standing armies with D 162
large canvas duffel bag D 162
large barges loaded with D 162
large initial outlay and D 160
large estate owners had D 160
large curved retort was D 158
larvae become active and D 157
large quartz grains and D 156
large picnic basket and D 156
large extent through its D 156
large export demand for D 156
large blonde victim was D 156
laser output energy and D 152
large spatial extent and D 150
large armies starve and D 148
large gourds filled with D 146
large cattle owners and D 146
large wicker basket that D 145
large diesel engines for D 144
large copper kettle and D 144
large extent worked out D 143
large window openings and D 142
large spatial scales are D 142
large soviet orders for D 142
large hamper filled with D 142
large wooden trough and D 140
large venous trunks and D 140
large police forces and D 140
labor through rugged and D 140
large palace before them D 138
large extent depend for D 138
large resort hotels and D 136
large measure efface one D 136
large annual outlay for D 136
later larval stages and D 135
large starch grains and D 134
large trucks filled with D 132
large standing armies was D 130
large quartz grains are D 130
later larval stages are D 128
large quarto volume with D 128
large public sector may D 128
large muscle groups may D 126
large estate owners are D 126
large shopping centre and D 124
lamps alight through all D 124
large silver coffee pot D 122
large parade ground and D 122
labor supply curves that D 122
large stones harder than D 120
large rocket engines and D 120
large muscle groups can D 120
lance passed through his D 120
later another lineup was D 118
large muscle masses are D 118
large square stones and D 116
large school spending its D 116
large plateau runoff and D 116
large luxury hotels and D 116
large silver coffee urn D 115
large shopping center that D 115
laser output energy was D 114
large grinding wheels are D 114
large extent created and D 114
large curved needle and D 114
large carton filled with D 114
large angular blocks and D 114
labor market policy with D 114
large starting torque with D 110
large muscle groups with D 110
large cattle owners who D 110
labor leaders realize that D 109
later became allied with D 108
large wagons filled with D 108
large trouts sucked them D 108
large stokes shifts and D 108
large retail stores with D 108
large packet behind you D 108
later career showed that D 106
later another decree was D 106
large extent passed out D 106
large estate owners was D 106
laser photon energy and D 105
large funnel filled with D 105
large survey showed that D 104
large silver buckle with D 104
large forest tracts and D 104
large estate owners with D 104
lacking indoor plumbing and D 104
labor demand curves and D 104
large office building may D 102
large jigsaw puzzle with D 102
large cutter pulled out D 102
labor leaders joined with D 102
large yellow school bus D 100
large wooden spoons and D 100
large rambling building with D 100
large plates filled with D 100
large office filled with D 100
large extent shaped and D 100
labor market reveals that D 99
large wicker basket for D 98
large venous trunks may D 98
large stones placed one D 98
large octavo volume with D 98
large livery stable and D 98
large extent beyond our D 98
large dishes filled with D 98
large crater filled with D 98
large corral fitted for D 98
large cooler filled with D 98
large modern hotels and D 96
large dinner plates and D 96
large cotton spinning and D 96
large copper kettle with D 96
later public opinion was D 95
large wooden crates that D 95
labor leaders agreed that D 95
large starch grains are D 94
large shopping center was D 94
large shells filled with D 94
large office building has D 94
large number offish that D 93
large wooden barrel with D 92
large silver ladles with D 92
large public sector for D 92
large buffer stocks and D 92
larva passes through its D 90
larva covers itself with D 90
large muscle skills and D 90
large mansion before thee D 90
large extent through this D 90
large extent before they D 90
later another survey was D 88
large parish church was D 88
large parish church and D 88
large cystic spaces are D 88
large cruising radius and D 88
large public sector are D 86
large corner office that D 86
later another colony was D 84
large shopping center has D 84
large marble column was D 84
large landed estate near D 84
large extent whether they D 84
large extent cancel each D 84
large export market and D 84
large cavity without any D 84
large ashlar blocks and D 84
large annual income for D 84
labor market status are D 84
lasts through summer and D 82
large thermal inertia and D 82
large cystic spaces with D 82
large atomic number and D 82
labor leaders should not D 82
layer spacer yellow dye D 80
large wooden trough with D 80
large tenant farmer who D 80
large enough target for D 80
large dollar volume and D 80
large barges filled with D 80
large broken scathed oak D 53
large spatial scales that D 43
large jigsaw puzzle that D 42
labor leaders insist that D 41
