labour market trends and M 1566
latest annual report and M 904
labour market training and M 827
labour market changes and M 788
labour market reform and M 739
latter authors showed that M 712
larger vessel filled with M 497
labour market issues and M 449
larger market shares and M 432
labour became scarce and M 366
labour market theories and M 347
latter slowly turned his M 320
larger market shares than M 318
labour market demand and M 311
labour market supply and M 308
labour market should not M 295
labour market demand for M 290
latter slowly turned this M 282
latter joined forces with M 264
labour market without any M 256
latest annual report for M 244
ladies neither smiled nor M 220
latter result agrees with M 208
latter admits loudly and M 206
labour market reform was M 196
larger circle around them M 188
larger church building was M 184
labour market reform has M 182
larger safety factor than M 178
latter writer states that M 174
latter authors stated that M 167
labour market training has M 167
latest report states that M 164
ladies endure without them M 164
labour should become dear M 163
larger lifted itself out M 157
latest market trends and M 156
larger market shares for M 156
latter authors report that M 152
larger sampling errors than M 150
labour market changes are M 150
larger profit margin than M 146
labour market trends are M 143
latter factor should not M 130
latest annual edition and M 128
labour market training are M 128
labour market forces and M 127
labour market training was M 126
latter source states that M 125
labour market issues are M 125
labour market changes that M 123
larger profit margin for M 122
labour market itself and M 122
labour market before they M 122
labour market reform that M 113
latter little better than M 112
larger proper motions than M 112
larger member states and M 112
latter agrees better with M 110
larger school system and M 110
latter became famous for M 106
larger sample volume and M 106
larger family system and M 106
latter become filled with M 104
latter figure should not M 102
latter authors argued that M 102
labour market access for M 102
labour market through its M 100
latter figure agrees with M 96
labour market earlier than M 94
layers remain intact and M 92
larger member states are M 92
larger eastern cities and M 92
larger family groups are M 90
labour offering itself for M 90
latter clearly states that M 89
latter should resign his M 88
latter should assist him M 88
latter safely pursue its M 88
ladies rarely exceed one M 88
latter merely states that M 83
latest market prices for M 82
larger school building was M 82
labour market before and M 82
latter result should not M 80
labour market access and M 65
labour market training for M 63
labour without allowing him M 61
latest annual report that M 57
latter simply states that M 47
latter should ensure that M 43
larger belief system that M 42
larger states argued that M 41
labour market policy and D 6296
labour market policy has D 1589
labour market policy was D 983
lawyer should advise his D 706
lawyer should insist that D 655
labour market policy are D 640
labour market status and D 567
lawyer should advise any D 522
labour market policy for D 478
lawyer should review all D 474
labour market policy that D 467
labour market policy can D 442
lawyer should always act D 438
lawyer should ensure that D 408
larger public sector than D 352
larger muscle groups are D 338
larger spatial scales than D 318
lacked neither energy nor D 304
larger stroke volume and D 300
larger annual income than D 298
larger dipole moment than D 287
latest fashion trends and D 284
larger spatial scales and D 282
lacked formal training and D 282
labour market policy with D 278
lacked indoor plumbing and D 276
lacked proper training and D 272
layers become thinner and D 257
lately passed through this D 240
lawyer should comply with D 190
larger muscle groups and D 190
larger atomic volume than D 186
larger public sector and D 176
lacked neither spirit nor D 176
larger stroke volume than D 170
lacked neither strength nor D 168
labour market skills and D 165
lagged behind prices and D 162
labour market policy may D 160
lately beheld thronged with D 156
labour market policy had D 155
larger policy issues that D 153
lacked neither talent nor D 152
landau rolled slowly out D 148
larger atomic radius than D 146
larger spatial extent than D 144
lacked modern weapons and D 142
lawyer should advise you D 140
larger dollar amount than D 136
larger policy issues and D 128
larger export market for D 124
latter become coated with D 122
labour supply curves are D 122
lasted through dinner and D 120
layers become thicker and D 116
latest sports scores and D 116
larval stages before they D 116
lawyer should realize that D 115
lastly quills filled with D 114
launch escape system and D 112
latter varies greatly with D 112
larger quartz grains are D 112
lawyer should confer with D 110
latest census showed that D 109
lagged behind demand and D 106
larger retail stores and D 102
larger police forces and D 102
latest survey showed that D 100
larger atomic number than D 100
languid amidst lilies and D 100
larger policy issues are D 98
latter section states that D 97
lagged models better than D 96
larger starting torque than D 94
larger atomic weight than D 94
lashes fanned across her D 92
larger pollen grains than D 92
languid degree amused with D 92
lawyer appearing before him D 90
lately amused myself with D 86
larger retail stores are D 84
landed without mishap and D 82
lagged behind demand for D 82
larger nuclear charge than D 80
lagged behind almost all D 57
labour leaders argued that D 45
lacunae become filled with D 41
