attend public meetings and M 1086
attend public school and M 680
attend summer school and M 618
attend school unless they M 340
attend summer school for M 250
attend public school for M 250
attend school without being M 240
attend prayer meetings and M 232
attend annual meetings and M 230
attend weekly meetings and M 228
attend school meetings and M 216
attend branch meetings and M 186
attend school without any M 174
attend various meetings and M 170
attend weekly meetings with M 166
attend public school with M 162
attend monthly meetings and M 160
attack humans unless they M 124
attend monthly meetings with M 120
attend church meetings and M 120
attend public school but M 114
attain higher values than M 114
attend normal school and M 112
attend planning meetings and M 102
attend church weekly are M 102
attain something higher and M 98
attain without enduring and M 96
attend school events and M 94
attain values greater than M 94
attack another person with M 93
attend neither church nor M 90
attend school through age M 88
attend middle school and M 88
attend public meetings with M 86
attain greater strength and M 86
attend church weekly and M 81
attend public school was M 80
attack without regard for M 65
atomic energy agency and D 10837
atomic number greater than D 4570
atomic energy agency for D 1800
atomic energy levels and D 1668
atomic energy agency has D 1598
atomic energy agency was D 1340
atomic number higher than D 1202
atomic energy levels are D 980
atomic weight greater than D 876
atomic energy should not D 690
atomic energy plants and D 592
atomic energy agency with D 454
atomic energy agency that D 410
atomic energy agency are D 370
atomic energy agency had D 358
atomic energy agency who D 308
attend sporting events and D 282
atomic energy policy and D 280
atomic energy agency may D 276
atomic layers agrees with D 264
atomic number larger than D 244
atomic weapons should not D 232
atomic energy levels for D 206
atomic weight higher than D 198
attain higher scores than D 196
atomic energy levels with D 162
atomic dipole moment and D 162
atomic energy plants are D 160
attain parity prices and D 148
attend common messes and D 142
attire little better than D 140
attain higher status than D 138
attend boarding school and D 136
atomic energy levels that D 134
atomic energy solely for D 132
atomic masses greater than D 106
atomic weight values and D 102
attain speeds greater than D 100
atomic energy states are D 100
atomic weight values are D 98
atomic nuclei except that D 98
attain higher status and D 96
atomic energy levels can D 96
atomic energy agency can D 92
atomic energy levels due D 90
attend sports events and D 86
attain higher speeds than D 86
atomic energy levels was D 84
attend school dances and D 82
